# vtk DataFile Version 3.0
vtk output
ASCII
DATASET POLYDATA
POINTS 500 float
0.000000 5.000000 0.000000
1.233385 -2.579252 0.000000
-0.501361 2.896328 0.000000
-4.521065 0.378707 0.000000
-2.585112 0.187568 0.000000
-2.993377 -3.050924 0.000000
-0.100272 4.579266 0.000000
4.084425 1.657206 0.000000
1.155639 0.041083 0.000000
3.945251 -1.243453 0.000000
-0.050136 4.789633 0.000000
-2.160030 4.445942 0.000000
1.046104 -2.277941 0.000000
0.189214 -4.954101 0.000000
-1.506020 0.901136 0.000000
-1.040876 -0.676642 0.000000
1.068011 -1.814136 0.000000
3.237371 -3.387107 0.000000
-0.702293 2.497289 0.000000
-3.044148 2.656010 0.000000
-2.849458 -2.869796 0.000000
-2.631869 -4.185342 0.000000
-2.944519 -0.874165 0.000000
-4.401846 -1.480051 0.000000
1.064357 -3.406295 0.000000
1.907641 -4.526271 0.000000
1.050485 -2.185180 0.000000
-0.799272 -3.176575 0.000000
2.762515 -0.347667 0.000000
3.899004 0.241051 0.000000
0.526681 0.794598 0.000000
-0.082724 0.110781 0.000000
0.115464 1.635290 0.000000
1.483903 1.862848 0.000000
1.103062 -1.072048 0.000000
-0.213713 -1.428248 0.000000
1.046686 4.099414 0.000000
2.237648 4.284418 0.000000
-2.627173 2.350665 0.000000
-4.375689 1.880367 0.000000
2.924253 -2.850589 0.000000
3.921292 -2.593503 0.000000
-1.206056 -0.486654 0.000000
-1.317393 -2.053106 0.000000
-3.079225 -1.920851 0.000000
-4.012200 -2.676326 0.000000
-2.603046 -3.117807 0.000000
-1.949668 -3.135774 0.000000
1.164016 1.603539 0.000000
2.545809 1.180618 0.000000
-0.109791 -3.181262 0.000000
-0.725622 -4.306541 0.000000
3.077414 3.053163 0.000000
3.505355 3.344346 0.000000
-0.254631 2.391913 0.000000
1.063520 2.633370 0.000000
-2.285156 2.223584 0.000000
-2.655057 1.391460 0.000000
-1.912671 4.372903 0.000000
-2.987668 3.602795 0.000000
3.333222 -0.982252 0.000000
3.464918 -1.722742 0.000000
-1.344643 -0.675390 0.000000
-2.030473 -1.078831 0.000000
0.197707 1.467152 0.000000
-0.535818 0.837282 0.000000
1.113578 -0.849422 0.000000
2.262801 -1.382799 0.000000
3.834929 0.137377 0.000000
4.807297 0.564722 0.000000
3.234348 2.449120 0.000000
3.064328 1.863506 0.000000
2.019691 3.288192 0.000000
2.224007 2.201511 0.000000
0.280910 -2.654080 0.000000
-0.423561 -2.252073 0.000000
-0.421143 3.232915 0.000000
-1.612472 3.218274 0.000000
-3.958722 -1.039247 0.000000
-4.656574 -0.784161 0.000000
3.634419 1.746556 0.000000
3.528233 1.144511 0.000000
3.171575 2.690737 0.000000
4.031311 2.563650 0.000000
1.881130 -2.395207 0.000000
1.741429 -2.984256 0.000000
-2.465243 -3.899449 0.000000
-1.978427 -4.506461 0.000000
3.876051 -1.144385 0.000000
4.727970 -1.287773 0.000000
-3.267220 2.312419 0.000000
-3.786128 2.875861 0.000000
-0.684301 -4.180102 0.000000
-1.160179 -4.782235 0.000000
-2.027596 2.386831 0.000000
-2.456125 2.935959 0.000000
-3.172909 0.410573 0.000000
-3.259641 0.941545 0.000000
-4.243040 1.884100 0.000000
-4.793659 1.417641 0.000000
-0.356969 3.502185 0.000000
0.341800 3.236185 0.000000
0.127064 0.113994 0.000000
-0.112718 -0.648472 0.000000
1.675969 -3.948385 0.000000
2.418088 -4.078368 0.000000
-3.835550 -2.231559 0.000000
-4.509765 -2.136339 0.000000
-2.947544 -2.940260 0.000000
-3.588425 -3.468685 0.000000
3.440556 -0.229533 0.000000
4.068433 -0.542589 0.000000
1.718506 -2.278993 0.000000
2.465082 -2.011071 0.000000
0.652473 0.643895 0.000000
1.319978 0.942867 0.000000
4.119281 -1.386986 0.000000
4.392557 -2.071577 0.000000
2.441140 -0.269917 0.000000
2.432808 -0.840372 0.000000
-3.033272 -2.110640 0.000000
-2.108588 -2.219556 0.000000
1.075021 -1.665718 0.000000
0.427067 -1.924952 0.000000
1.669839 -0.083317 0.000000
2.017636 0.470244 0.000000
2.014729 0.262135 0.000000
2.614167 0.571855 0.000000
-0.254290 3.933017 0.000000
-1.036103 3.902603 0.000000
-2.764815 -0.343299 0.000000
-3.454493 -0.377527 0.000000
-3.543078 -1.071593 0.000000
-3.769680 -1.633477 0.000000
-2.191268 -2.308300 0.000000
-1.605461 -2.689164 0.000000
0.202770 -2.759517 0.000000
-0.932931 -2.568958 0.000000
-0.580310 -3.706861 0.000000
-1.398815 -3.594590 0.000000
-1.235859 0.205469 0.000000
-0.805299 -0.031439 0.000000
1.130402 -0.493220 0.000000
0.628348 -0.594201 0.000000
0.358511 4.387325 0.000000
0.840352 4.863436 0.000000
1.321389 4.238578 0.000000
1.423747 4.761061 0.000000
3.957207 -0.373640 0.000000
4.703775 -0.386483 0.000000
2.396756 -2.778741 0.000000
2.551813 -3.348140 0.000000
3.943541 2.515493 0.000000
4.453694 2.246499 0.000000
-2.369293 0.330282 0.000000
-2.059809 -0.479780 0.000000
-3.302784 0.791408 0.000000
-3.735277 1.264247 0.000000
-0.663503 -4.085454 0.000000
-0.214767 -4.554992 0.000000
2.442780 3.194181 0.000000
2.713049 3.776038 0.000000
-1.023784 1.858828 0.000000
-1.566635 1.860944 0.000000
-4.054693 0.200020 0.000000
-4.580330 -0.215540 0.000000
-0.931191 -0.028310 0.000000
-0.576367 -0.432990 0.000000
-3.011201 2.327717 0.000000
-3.261734 1.703711 0.000000
-2.998402 -1.292839 0.000000
-2.034052 -1.676419 0.000000
-1.937657 0.615709 0.000000
-2.391860 1.066332 0.000000
-3.399405 -3.126310 0.000000
-3.718728 -2.993242 0.000000
4.387336 0.530594 0.000000
4.759103 1.170373 0.000000
-0.154733 0.978077 0.000000
-0.170143 0.568662 0.000000
0.913487 -4.023546 0.000000
1.237948 -4.559352 0.000000
3.387392 -1.639873 0.000000
3.354344 -2.204265 0.000000
0.077745 -2.928215 0.000000
0.371720 -3.389298 0.000000
-1.229899 0.067045 0.000000
-1.692740 -0.230236 0.000000
-4.409574 0.365794 0.000000
-4.931881 0.722382 0.000000
-2.280945 2.895849 0.000000
-2.390783 3.428383 0.000000
-1.207356 -1.013479 0.000000
-0.788511 -1.280429 0.000000
4.027543 1.692793 0.000000
4.634926 1.649123 0.000000
-0.203895 -3.286382 0.000000
0.148481 -3.998249 0.000000
3.677180 -0.009387 0.000000
3.502835 0.500423 0.000000
-0.408449 0.829303 0.000000
-0.644835 0.453023 0.000000
4.347194 -0.498742 0.000000
4.524513 -0.876703 0.000000
1.435888 3.774925 0.000000
1.097761 3.139923 0.000000
2.569707 3.165977 0.000000
2.706273 2.564896 0.000000
1.303631 3.298069 0.000000
1.476539 2.899278 0.000000
4.552764 -0.359155 0.000000
4.995731 0.017385 0.000000
-3.735414 0.402315 0.000000
-4.153439 0.964300 0.000000
3.266776 -1.359552 0.000000
2.789281 -1.778530 0.000000
-0.069584 2.013601 0.000000
-0.492458 1.678704 0.000000
2.254393 2.349763 0.000000
2.537905 1.823105 0.000000
2.577182 -3.242084 0.000000
2.928866 -3.902690 0.000000
-3.530693 2.768171 0.000000
-3.456934 3.225362 0.000000
-1.140755 -3.835967 0.000000
-1.513194 -4.222590 0.000000
0.470030 -1.887287 0.000000
-0.033363 -1.981183 0.000000
0.950606 -3.624168 0.000000
0.598578 -3.764967 0.000000
3.033731 -0.300413 0.000000
3.091677 0.315095 0.000000
-3.657745 2.233936 0.000000
-4.122290 2.517919 0.000000
3.202108 -3.145926 0.000000
3.638396 -3.321091 0.000000
1.978360 -0.157957 0.000000
1.997224 -0.718326 0.000000
-2.421948 -3.524680 0.000000
-2.043692 -3.705787 0.000000
-2.908578 -0.767992 0.000000
-2.470461 -1.100487 0.000000
2.419535 -3.044184 0.000000
2.110615 -3.337322 0.000000
2.722935 3.531069 0.000000
3.227211 3.773586 0.000000
1.269043 0.832575 0.000000
1.719627 0.757377 0.000000
0.853739 0.402770 0.000000
0.540172 -0.024928 0.000000
-1.134335 -1.430997 0.000000
-0.802233 -1.800145 0.000000
-3.037916 -2.977470 0.000000
-3.138578 -3.884137 0.000000
-4.157984 -0.026414 0.000000
-4.003238 -0.362524 0.000000
1.844131 1.492136 0.000000
2.040291 1.738497 0.000000
-2.163827 -1.729498 0.000000
-1.822241 -1.978790 0.000000
2.990798 -0.601501 0.000000
2.786211 -1.028244 0.000000
3.493059 -1.889345 0.000000
3.857967 -2.161980 0.000000
-1.409573 1.092674 0.000000
-2.008130 1.260133 0.000000
-0.698713 -0.361387 0.000000
-0.465198 -0.842835 0.000000
0.741479 2.393793 0.000000
1.051678 2.254979 0.000000
0.397801 -1.156312 0.000000
0.215896 -0.979172 0.000000
-2.416933 3.092396 0.000000
-2.952381 3.258903 0.000000
-0.838199 -0.161541 0.000000
-0.477163 -0.096378 0.000000
-2.383159 0.887461 0.000000
-2.875647 1.014311 0.000000
1.140497 -0.279499 0.000000
1.432830 -0.521656 0.000000
-0.956777 -1.729674 0.000000
-0.864989 -2.152523 0.000000
-2.182132 2.288883 0.000000
-2.047376 1.762633 0.000000
3.423504 1.333515 0.000000
3.081495 1.057847 0.000000
2.256028 -0.225133 0.000000
2.459660 0.080579 0.000000
0.276346 2.482764 0.000000
0.546618 2.767798 0.000000
3.413130 3.150709 0.000000
3.869980 3.047093 0.000000
-1.114758 3.371585 0.000000
-1.397360 3.680901 0.000000
0.742140 -4.432124 0.000000
0.863456 -4.872948 0.000000
-4.338598 0.332639 0.000000
-4.975641 -0.007296 0.000000
-1.216678 1.475751 0.000000
-0.856352 1.203192 0.000000
3.026902 -1.731780 0.000000
2.994665 -2.103785 0.000000
1.034879 0.185758 0.000000
1.516857 0.464298 0.000000
1.524214 0.876219 0.000000
1.693929 1.120954 0.000000
-1.411013 -4.198727 0.000000
-1.612873 -4.582968 0.000000
-1.696371 -1.042979 0.000000
-1.757964 -1.420665 0.000000
-1.332415 1.245905 0.000000
-0.936629 0.783148 0.000000
0.395092 1.063620 0.000000
0.773252 1.166132 0.000000
0.983843 -2.826544 0.000000
0.613626 -3.026867 0.000000
-0.402669 2.694562 0.000000
0.075013 2.845460 0.000000
3.196252 -0.829952 0.000000
3.550697 -0.695246 0.000000
-4.530335 -0.183240 0.000000
-4.899236 -0.327368 0.000000
2.040202 2.784589 0.000000
1.590466 2.369442 0.000000
-1.259236 -1.987692 0.000000
-1.341593 -2.548559 0.000000
-1.232414 2.453106 0.000000
-1.464226 2.882165 0.000000
2.190505 -2.625327 0.000000
2.539327 -2.397092 0.000000
-0.829659 -1.275808 0.000000
-0.576019 -1.505881 0.000000
-3.973173 1.927600 0.000000
-3.947762 1.569751 0.000000
1.771870 -2.940363 0.000000
1.774519 -3.372606 0.000000
2.145037 0.419855 0.000000
2.154786 0.899447 0.000000
-2.080343 -3.132181 0.000000
-1.420277 -3.204604 0.000000
1.734502 -1.346932 0.000000
1.736790 -1.574765 0.000000
4.529279 0.463047 0.000000
4.733788 0.229241 0.000000
-0.581734 2.736712 0.000000
-1.036522 2.938708 0.000000
1.727790 3.531559 0.000000
2.201034 3.879376 0.000000
0.702599 4.243369 0.000000
0.643677 3.758967 0.000000
-1.577994 4.362877 0.000000
-1.916293 3.841421 0.000000
0.686932 3.860500 0.000000
0.691332 3.092115 0.000000
-2.879010 0.299071 0.000000
-2.874269 0.697399 0.000000
-1.765002 0.729880 0.000000
-1.664941 0.439878 0.000000
-1.541333 3.328239 0.000000
-1.950089 3.389439 0.000000
-4.371213 -1.254273 0.000000
-4.804633 -1.270398 0.000000
0.954306 1.609889 0.000000
1.163977 1.277827 0.000000
0.759108 -4.245886 0.000000
0.441243 -4.238507 0.000000
-0.516238 0.518201 0.000000
-0.443896 0.191535 0.000000
0.022940 1.824446 0.000000
0.585988 2.030245 0.000000
-1.288746 -3.773592 0.000000
-1.646351 -3.838360 0.000000
3.870293 1.714299 0.000000
4.120986 1.142066 0.000000
-2.959746 -2.414302 0.000000
-3.399520 -2.689822 0.000000
-1.139520 1.628982 0.000000
-1.698068 1.527254 0.000000
-2.468393 1.958790 0.000000
-2.829296 1.920822 0.000000
0.061358 -0.374174 0.000000
0.272907 -0.585723 0.000000
4.538936 -0.709865 0.000000
4.894919 -0.842975 0.000000
3.767486 -1.111959 0.000000
4.070938 -0.885315 0.000000
-3.382875 1.011055 0.000000
-3.240043 1.273169 0.000000
0.032384 -0.179105 0.000000
-0.275779 -0.314396 0.000000
-4.093355 0.915994 0.000000
-4.248191 1.294621 0.000000
-2.110311 0.501538 0.000000
-1.912097 -0.001982 0.000000
0.996295 -2.716823 0.000000
1.400719 -2.943416 0.000000
1.918756 -0.566424 0.000000
1.770876 -0.804000 0.000000
1.869565 -3.910496 0.000000
2.049718 -3.714691 0.000000
4.035204 -0.398660 0.000000
4.322015 -0.028028 0.000000
2.438310 -0.006980 0.000000
2.727058 0.250747 0.000000
1.807866 2.441039 0.000000
1.859172 2.079637 0.000000
-0.915774 -3.723008 0.000000
-1.065684 -3.436598 0.000000
-1.391451 2.439851 0.000000
-1.450246 2.157216 0.000000
4.068031 0.381623 0.000000
3.979848 0.730021 0.000000
-0.349289 1.695687 0.000000
-0.520787 1.355016 0.000000
-0.192683 4.191517 0.000000
0.208126 4.040038 0.000000
1.877834 -1.440041 0.000000
2.023545 -1.713964 0.000000
-1.645909 2.418643 0.000000
-1.846477 2.890998 0.000000
-1.916522 -3.202967 0.000000
-1.799036 -3.493119 0.000000
0.316138 1.225033 0.000000
0.161435 0.928959 0.000000
-3.030731 -1.544044 0.000000
-3.392187 -1.585191 0.000000
2.714367 -3.354716 0.000000
2.943636 -3.326031 0.000000
0.089192 -0.003246 0.000000
0.363979 -0.272675 0.000000
-3.397911 0.407270 0.000000
-3.466596 0.063281 0.000000
-2.822321 -0.513176 0.000000
-2.463241 -0.658555 0.000000
2.887836 -0.972359 0.000000
2.873628 -1.333690 0.000000
-0.443483 -4.450465 0.000000
-0.382464 -4.941154 0.000000
-4.135093 1.901500 0.000000
-4.423654 2.213089 0.000000
-2.397523 -2.362215 0.000000
-2.278829 -2.714136 0.000000
-3.266139 1.959873 0.000000
-3.557350 1.802210 0.000000
-4.093600 0.823057 0.000000
-4.497572 0.913025 0.000000
1.032151 -3.174395 0.000000
0.703879 -3.363854 0.000000
-0.806009 -2.715849 0.000000
-1.104151 -2.932712 0.000000
0.017625 -1.197305 0.000000
-0.178734 -1.012481 0.000000
3.664258 -2.822389 0.000000
3.884324 -2.941806 0.000000
-1.343924 0.483736 0.000000
-0.910748 0.478803 0.000000
-3.050128 -1.694767 0.000000
-2.690727 -1.873473 0.000000
2.569690 -0.301017 0.000000
2.914040 0.780983 0.000000
3.107549 1.941862 0.000000
3.008122 1.449551 0.000000
0.162169 3.456196 0.000000
0.316954 3.561542 0.000000
1.899666 -0.724708 0.000000
1.974772 -1.008162 0.000000
1.458308 -2.093050 0.000000
1.759009 -1.898246 0.000000
-4.366191 -1.432274 0.000000
-4.322208 -1.788981 0.000000
-1.949628 1.252387 0.000000
-2.315866 1.400107 0.000000
2.713254 -2.821849 0.000000
2.945046 -2.439347 0.000000
2.402876 0.581224 0.000000
2.554767 0.876896 0.000000
1.148068 -0.119208 0.000000
0.852864 -0.122933 0.000000
-2.537417 -1.446066 0.000000
-2.259947 -1.312683 0.000000
0.357229 -4.649221 0.000000
0.092221 -4.588574 0.000000
-2.671545 1.648949 0.000000
-2.916579 1.557866 0.000000
1.086237 -1.428250 0.000000
1.387747 -1.650379 0.000000
-3.489285 -2.139014 0.000000
-3.467667 -2.391088 0.000000
-3.183943 -0.953136 0.000000
-3.416852 -0.687346 0.000000
-2.998988 2.644243 0.000000
-3.230997 2.925984 0.000000
-0.087396 -3.768833 0.000000
-0.236260 -3.993192 0.000000
-2.557917 -3.346557 0.000000
-2.751100 -3.581171 0.000000
-0.580430 4.688298 0.000000
-0.881702 4.849765 0.000000
3.550354 -1.047105 0.000000
3.591240 -1.354392 0.000000
LINES 499 1497
2 0 10
2 10 496
2 496 497
2 496 350
2 350 351
2 350 58
2 58 59
2 58 11
2 10 6
2 6 144
2 144 145
2 144 348
2 348 36
2 36 146
2 146 147
2 146 37
2 36 204
2 204 346
2 346 347
2 346 72
2 72 160
2 160 244
2 244 245
2 244 161
2 160 206
2 206 52
2 52 82
2 82 152
2 152 153
2 152 83
2 82 70
2 70 460
2 460 461
2 460 71
2 70 80
2 80 372
2 372 373
2 372 194
2 194 195
2 194 7
2 80 284
2 284 81
2 284 285
2 52 290
2 290 53
2 290 291
2 206 207
2 72 322
2 322 218
2 218 73
2 218 219
2 322 404
2 404 323
2 404 405
2 204 208
2 208 205
2 208 209
2 348 352
2 352 349
2 352 353
2 6 414
2 414 128
2 128 100
2 100 76
2 76 2
2 2 344
2 344 345
2 344 18
2 18 326
2 326 327
2 326 408
2 408 418
2 418 419
2 418 94
2 94 190
2 190 272
2 272 273
2 272 191
2 190 95
2 94 282
2 282 56
2 56 378
2 378 379
2 378 482
2 482 57
2 482 483
2 56 38
2 38 168
2 168 442
2 442 443
2 442 169
2 168 90
2 90 222
2 222 223
2 222 91
2 90 232
2 232 332
2 332 333
2 332 438
2 438 98
2 98 39
2 98 99
2 438 439
2 232 233
2 38 490
2 490 19
2 490 491
2 282 283
2 408 409
2 18 162
2 162 376
2 376 377
2 376 298
2 298 299
2 298 310
2 310 264
2 264 470
2 470 471
2 470 265
2 264 14
2 14 454
2 454 455
2 454 140
2 140 166
2 166 274
2 274 275
2 274 266
2 266 267
2 266 167
2 166 141
2 140 186
2 186 42
2 42 62
2 62 308
2 308 309
2 308 63
2 62 192
2 192 250
2 250 280
2 280 281
2 280 251
2 250 324
2 324 43
2 324 325
2 192 330
2 330 193
2 330 331
2 42 15
2 186 187
2 14 356
2 356 172
2 172 392
2 392 393
2 392 154
2 154 4
2 4 130
2 130 131
2 130 432
2 432 240
2 240 22
2 22 488
2 488 489
2 488 132
2 132 133
2 132 78
2 78 79
2 78 360
2 360 468
2 468 469
2 468 23
2 360 361
2 22 170
2 170 424
2 424 425
2 424 456
2 456 44
2 44 120
2 120 440
2 440 441
2 440 134
2 134 135
2 134 121
2 120 374
2 374 20
2 20 46
2 46 338
2 338 420
2 420 421
2 420 339
2 338 47
2 46 494
2 494 238
2 238 86
2 86 21
2 86 87
2 238 239
2 494 495
2 20 108
2 108 5
2 108 252
2 252 174
2 174 109
2 174 175
2 252 253
2 374 375
2 44 486
2 486 106
2 106 45
2 106 107
2 486 487
2 456 457
2 170 478
2 478 258
2 258 171
2 258 259
2 478 479
2 240 241
2 432 433
2 4 354
2 354 96
2 96 430
2 430 431
2 430 212
2 212 444
2 444 445
2 444 390
2 390 391
2 390 213
2 212 164
2 164 254
2 254 255
2 254 320
2 320 165
2 320 321
2 164 296
2 296 188
2 188 3
2 188 189
2 296 297
2 96 156
2 156 97
2 156 386
2 386 157
2 386 387
2 354 355
2 154 155
2 172 276
2 276 173
2 276 277
2 356 357
2 310 311
2 162 163
2 2 316
2 316 54
2 54 216
2 216 412
2 412 413
2 412 217
2 216 368
2 368 32
2 32 64
2 64 178
2 178 179
2 178 200
2 200 65
2 200 366
2 366 201
2 366 367
2 64 422
2 422 312
2 312 30
2 30 114
2 114 246
2 246 304
2 304 305
2 304 247
2 246 115
2 114 248
2 248 302
2 302 303
2 302 8
2 8 476
2 476 477
2 476 278
2 278 279
2 278 142
2 142 143
2 142 66
2 66 340
2 340 341
2 340 416
2 416 67
2 416 417
2 66 34
2 34 270
2 270 271
2 270 450
2 450 35
2 450 451
2 34 484
2 484 122
2 122 16
2 16 466
2 466 467
2 466 112
2 112 113
2 112 84
2 84 334
2 334 335
2 334 85
2 84 328
2 328 150
2 150 472
2 472 473
2 472 40
2 40 452
2 452 453
2 452 41
2 40 234
2 234 17
2 234 235
2 150 242
2 242 220
2 220 151
2 220 426
2 426 221
2 426 427
2 242 243
2 328 329
2 16 26
2 26 12
2 12 394
2 394 395
2 394 314
2 314 315
2 314 446
2 446 24
2 24 104
2 104 398
2 398 399
2 398 105
2 104 25
2 24 228
2 228 180
2 180 364
2 364 365
2 364 294
2 294 295
2 294 480
2 480 13
2 480 481
2 180 181
2 228 229
2 446 447
2 12 1
2 26 74
2 74 136
2 136 448
2 448 449
2 448 137
2 136 184
2 184 50
2 50 27
2 50 196
2 196 138
2 138 158
2 158 436
2 436 437
2 436 159
2 158 92
2 92 51
2 92 93
2 138 406
2 406 224
2 224 370
2 370 371
2 370 139
2 224 306
2 306 225
2 306 307
2 406 407
2 196 492
2 492 197
2 492 493
2 184 185
2 74 75
2 122 226
2 226 123
2 226 227
2 484 485
2 8 124
2 124 236
2 236 396
2 396 464
2 464 465
2 464 397
2 396 237
2 236 286
2 286 118
2 118 458
2 458 459
2 458 28
2 28 260
2 260 434
2 434 435
2 434 261
2 260 318
2 318 60
2 60 214
2 214 300
2 300 301
2 300 215
2 214 182
2 182 262
2 262 263
2 262 183
2 182 61
2 60 498
2 498 384
2 384 88
2 88 9
2 88 116
2 116 89
2 116 117
2 384 385
2 498 499
2 318 319
2 28 230
2 230 110
2 110 198
2 198 199
2 198 68
2 68 29
2 68 410
2 410 176
2 176 342
2 342 343
2 342 69
2 176 177
2 410 411
2 110 148
2 148 111
2 148 400
2 400 202
2 202 210
2 210 211
2 210 149
2 202 382
2 382 203
2 382 383
2 400 401
2 230 231
2 118 119
2 286 402
2 402 287
2 402 403
2 124 126
2 126 125
2 126 336
2 336 474
2 474 475
2 474 127
2 336 337
2 248 249
2 30 102
2 102 31
2 102 428
2 428 388
2 388 380
2 380 103
2 380 381
2 388 389
2 428 429
2 312 313
2 422 423
2 32 362
2 362 48
2 48 33
2 48 256
2 256 49
2 256 257
2 362 363
2 368 369
2 54 288
2 288 268
2 268 55
2 268 269
2 288 289
2 316 317
2 76 292
2 292 358
2 358 359
2 358 77
2 292 293
2 100 462
2 462 101
2 462 463
2 128 129
2 414 415
POINT_DATA 500
SCALARS FMMTime float
LOOKUP_TABLE default
1.218660
0.282240
0.128700
0.273022
0.173921
0.247116
0.226802
0.150723
1.213593
0.553451
0.147687
0.549923
0.542054
0.211065
0.155432
0.178081
0.531170
0.521062
0.156031
0.516356
0.483784
0.221007
0.191441
0.155754
0.467894
0.460394
0.442238
0.258029
0.238336
0.153840
0.410772
0.246063
0.226967
0.147459
0.378937
0.318071
0.233911
0.268611
0.253391
0.145989
0.281192
0.201874
0.241052
0.223041
0.158309
0.192453
0.169241
0.290219
0.235188
0.150673
0.212446
0.225294
0.167827
0.188598
0.203228
0.150304
0.170975
0.191632
0.110007
0.178694
1.173944
1.173416
1.172574
1.171069
1.167806
0.879658
0.138969
0.878500
0.506163
0.144382
0.502216
0.499422
0.150735
0.494803
0.255273
0.240622
0.202307
0.178126
0.139296
0.471031
0.464763
0.250087
0.161028
0.225494
0.178681
0.179267
0.439251
0.421657
0.231443
0.189392
0.177623
0.397001
0.251165
0.211257
0.185820
0.360181
0.340114
0.195162
0.317183
0.280072
0.168881
0.257894
0.215020
0.194720
0.213860
0.119885
0.200483
0.160272
0.128102
0.818484
0.816915
0.149495
0.815243
0.142054
0.813803
0.811943
0.199553
0.185728
0.115476
0.807905
0.467653
0.149443
0.462510
0.274247
0.265163
0.173267
0.237771
0.214122
0.153618
0.125623
0.427834
0.419437
0.413620
0.247702
0.199743
0.193355
0.381592
0.346735
0.265205
0.231888
0.183548
0.284524
0.165732
0.264389
0.240314
0.133168
0.225828
0.144672
0.165353
0.751878
0.750465
0.744756
0.156831
0.742431
0.738952
0.669618
0.176143
0.665531
0.662771
0.658972
0.372326
0.159124
0.362374
0.192462
0.343290
0.219259
0.310430
0.265067
0.245420
0.156621
0.224345
0.616699
0.595624
0.162435
0.591569
0.586984
0.557337
0.312986
0.202627
0.281643
0.260148
0.167919
0.522276
0.513511
0.454861
0.337154
0.319809
0.238443
0.267553
0.177748
0.382096
0.364250
0.334058
0.234285
0.290120
0.222726
0.195368
0.345659
0.144374
0.337051
0.286735
0.231017
0.224040
0.245052
0.191775
0.307667
0.289575
0.219287
0.239497
0.169170
0.168410
0.285344
0.262303
0.176386
0.232447
0.173091
0.170740
0.153987
0.469141
0.463587
0.433752
0.157945
0.426656
0.285093
0.208017
0.241989
0.222524
0.146618
0.379126
0.296606
0.193173
0.266304
0.154279
0.247786
0.305100
0.252396
0.151137
0.232857
0.230972
0.262194
0.143170
0.247114
0.204853
0.186563
0.153598
0.178906
0.212332
0.144276
0.187291
0.133723
0.154488
0.146525
0.969740
0.968782
0.963813
0.186572
0.163640
0.128311
0.961477
0.960273
0.951153
0.265785
0.157409
0.245936
0.131549
0.232689
0.163543
0.201854
0.944185
0.943333
0.942355
0.932364
0.239961
0.226966
0.185885
0.174011
0.128573
0.927035
0.925665
0.155496
0.924200
0.793931
0.134348
0.792647
0.143942
0.791061
0.156426
0.789017
0.266804
0.161323
0.245486
0.200201
0.189172
0.778714
0.271039
0.160469
0.250819
0.203745
0.194175
0.767612
0.765679
0.758754
0.508746
0.157662
0.503648
0.198080
0.493220
0.243481
0.228591
0.135532
0.472591
0.463727
0.396001
0.199483
0.378353
0.310115
0.235982
0.255519
0.289795
0.209768
0.247207
0.335077
0.309147
0.156941
0.295030
0.257961
0.204199
0.200628
0.179964
0.673239
0.500594
0.495552
0.172748
0.488453
0.170405
0.481440
0.474018
0.335886
0.291188
0.207110
0.250963
0.236359
0.409391
0.396865
0.372277
0.199084
0.352239
0.229102
0.316412
0.258649
0.243146
0.221810
0.182790
0.171922
0.155393
0.564308
0.555522
0.276576
0.235582
0.200680
0.531660
0.523606
0.206339
0.512699
0.488139
0.375723
0.310823
0.265626
0.224315
0.284433
0.169531
0.262746
0.398481
0.380912
0.286472
0.241793
0.210846
0.316679
0.201178
0.286904
0.200048
0.264263
0.214868
0.204361
0.188769
0.202174
0.229391
0.125002
0.216283
0.150472
0.661123
0.643420
0.238345
0.218680
0.186635
0.158163
0.145535
0.632328
0.625589
0.621345
0.204246
0.613899
0.481118
0.224315
0.199281
0.149968
0.464282
0.456641
0.366203
0.271047
0.226103
0.202906
0.307925
0.294683
0.241789
0.225418
0.153363
0.358590
0.344596
0.323575
0.148326
0.312833
0.242642
0.253704
0.191664
0.173141
0.169388
0.493236
0.484744
0.386449
0.194178
0.369363
0.139578
0.362596
0.342366
0.283901
0.226680
0.223968
0.258372
0.196109
0.383019
0.159010
0.373657
0.353623
0.284189
0.255987
0.183487
0.277062
0.195439
0.239880
0.199577
0.182634
0.170417
0.199984
0.126159
0.181612
0.282716
0.141421
0.270390
0.237461
0.198483
0.177269
0.185456
0.152211
0.297521
0.139784
0.286858
0.265976
0.238316
0.191080
0.187184
0.174141
0.168556
0.137633
0.131555
0.292363
0.277656
0.161197
0.258216
0.224946
0.180023
0.153047
0.149410
0.240541
0.219891
0.178081
0.170823
0.148662
0.139256
0.237451
0.213245
0.189616
0.142265
0.154546
0.183707
0.152983
0.137848
0.151510
0.129671
0.000000
