# vtk DataFile Version 3.0
vtk output
ASCII
DATASET POLYDATA
POINTS 100 float
0.000000 5.000000 0.000000
1.233385 -2.579252 0.000000
-0.501361 2.896328 0.000000
-4.521065 0.378707 0.000000
-2.585112 0.187568 0.000000
-2.993377 -3.050924 0.000000
-0.100272 4.579266 0.000000
4.084425 1.657206 0.000000
1.155639 0.041083 0.000000
3.945251 -1.243453 0.000000
-0.050136 4.789633 0.000000
-2.160030 4.445942 0.000000
1.046104 -2.277941 0.000000
0.189214 -4.954101 0.000000
-1.506020 0.901136 0.000000
-1.040876 -0.676642 0.000000
1.068011 -1.814136 0.000000
3.237371 -3.387107 0.000000
-0.702293 2.497289 0.000000
-3.044148 2.656010 0.000000
-2.849458 -2.869796 0.000000
-2.631869 -4.185342 0.000000
-2.944519 -0.874165 0.000000
-4.401846 -1.480051 0.000000
1.064357 -3.406295 0.000000
1.907641 -4.526271 0.000000
1.054866 -2.092419 0.000000
-0.799272 -3.176575 0.000000
2.762515 -0.347667 0.000000
3.899004 0.241051 0.000000
0.526681 0.794598 0.000000
-0.082724 0.110781 0.000000
0.115464 1.635290 0.000000
1.483903 1.862848 0.000000
1.103062 -1.072048 0.000000
-0.213713 -1.428248 0.000000
1.046686 4.099414 0.000000
2.237648 4.284418 0.000000
-2.627173 2.350665 0.000000
-4.375689 1.880367 0.000000
2.924253 -2.850589 0.000000
3.921292 -2.593503 0.000000
-1.206056 -0.486654 0.000000
-1.317393 -2.053106 0.000000
-3.079225 -1.920851 0.000000
-4.012200 -2.676326 0.000000
-2.603046 -3.117807 0.000000
-1.949668 -3.135774 0.000000
1.164016 1.603539 0.000000
2.545809 1.180618 0.000000
-0.108214 -3.147868 0.000000
-0.725622 -4.306541 0.000000
3.077414 3.053163 0.000000
3.505355 3.344346 0.000000
-0.254631 2.391913 0.000000
1.063520 2.633370 0.000000
-2.285156 2.223584 0.000000
-2.655057 1.391460 0.000000
-1.912671 4.372903 0.000000
-2.987668 3.602795 0.000000
3.333222 -0.982252 0.000000
3.464918 -1.722742 0.000000
-1.344643 -0.675390 0.000000
-2.030473 -1.078831 0.000000
0.197707 1.467152 0.000000
-0.535818 0.837282 0.000000
1.113578 -0.849422 0.000000
2.262801 -1.382799 0.000000
3.834929 0.137377 0.000000
4.807297 0.564722 0.000000
3.234348 2.449120 0.000000
3.064328 1.863506 0.000000
2.019691 3.288192 0.000000
2.224007 2.201511 0.000000
0.283301 -2.603470 0.000000
-0.423561 -2.252073 0.000000
-0.421143 3.232915 0.000000
-1.612472 3.218274 0.000000
-3.958722 -1.039247 0.000000
-4.656574 -0.784161 0.000000
3.634419 1.746556 0.000000
3.528233 1.144511 0.000000
3.171575 2.690737 0.000000
4.031311 2.563650 0.000000
1.881130 -2.395207 0.000000
1.741429 -2.984256 0.000000
-2.465243 -3.899449 0.000000
-1.978427 -4.506461 0.000000
3.876051 -1.144385 0.000000
4.727970 -1.287773 0.000000
-3.267220 2.312419 0.000000
-3.786128 2.875861 0.000000
-0.684017 -4.174091 0.000000
-1.160179 -4.782235 0.000000
-2.027596 2.386831 0.000000
-2.456125 2.935959 0.000000
-3.172909 0.410573 0.000000
-3.259641 0.941545 0.000000
-4.243040 1.884100 0.000000
-4.793659 1.417641 0.000000
LINES 99 297
2 0 10
2 10 58
2 58 59
2 58 11
2 10 6
2 6 36
2 36 37
2 36 72
2 72 52
2 52 82
2 82 83
2 82 70
2 70 71
2 70 80
2 80 7
2 80 81
2 52 53
2 72 73
2 6 76
2 76 2
2 2 18
2 18 94
2 94 95
2 94 56
2 56 57
2 56 38
2 38 90
2 90 91
2 90 98
2 98 39
2 98 99
2 38 19
2 18 14
2 14 42
2 42 62
2 62 63
2 62 43
2 42 15
2 14 4
2 4 22
2 22 78
2 78 79
2 78 23
2 22 44
2 44 20
2 20 46
2 46 47
2 46 86
2 86 21
2 86 87
2 20 5
2 44 45
2 4 96
2 96 3
2 96 97
2 2 54
2 54 32
2 32 64
2 64 65
2 64 30
2 30 8
2 8 66
2 66 67
2 66 34
2 34 35
2 34 16
2 16 84
2 84 85
2 84 40
2 40 41
2 40 17
2 16 26
2 26 12
2 12 24
2 24 25
2 24 13
2 12 1
2 26 74
2 74 50
2 50 27
2 50 92
2 92 51
2 92 93
2 74 75
2 8 28
2 28 60
2 60 61
2 60 88
2 88 9
2 88 89
2 28 68
2 68 29
2 68 69
2 30 31
2 32 48
2 48 33
2 48 49
2 54 55
2 76 77
POINT_DATA 100
SCALARS FMMTime float
LOOKUP_TABLE default
1.176501
0.358822
0.329325
0.218854
1.165269
0.579017
0.261024
0.560766
0.536757
0.516196
0.308139
0.476641
0.293758
0.436097
0.333288
0.358085
0.257630
0.278894
1.115521
1.111271
0.843416
0.538100
0.249320
0.519632
0.274943
0.492592
0.470415
0.299429
0.425896
0.256811
0.392170
0.248942
0.762978
0.441891
0.421878
0.310443
0.356129
0.223746
0.709973
0.670705
0.414819
0.336200
0.321977
0.612989
0.576043
0.558882
0.349172
0.509158
0.357088
0.442190
0.254991
0.339664
0.382941
0.334382
0.265751
0.917506
0.910122
0.890340
0.251291
0.883617
0.876572
0.785961
0.296442
0.771645
0.305235
0.755384
0.504575
0.287936
0.471156
0.395976
0.348984
0.671334
0.500094
0.482101
0.370952
0.393661
0.235256
0.561988
0.529254
0.325022
0.484759
0.291005
0.446927
0.308089
0.572890
0.482272
0.324265
0.427401
0.244037
0.399041
0.423312
0.232031
0.398667
0.253914
0.363664
0.238080
0.325856
0.264474
0.250950
0.000000
