# vtk DataFile Version 3.0
vtk output
ASCII
DATASET POLYDATA
POINTS 200 float
0.000000 5.000000 0.000000
1.233385 -2.579252 0.000000
-0.501361 2.896328 0.000000
-4.521065 0.378707 0.000000
-2.585112 0.187568 0.000000
-2.993377 -3.050924 0.000000
-0.100272 4.579266 0.000000
4.084425 1.657206 0.000000
1.155639 0.041083 0.000000
3.945251 -1.243453 0.000000
-0.050136 4.789633 0.000000
-2.160030 4.445942 0.000000
1.046104 -2.277941 0.000000
0.189214 -4.954101 0.000000
-1.506020 0.901136 0.000000
-1.040876 -0.676642 0.000000
1.068011 -1.814136 0.000000
3.237371 -3.387107 0.000000
-0.702293 2.497289 0.000000
-3.044148 2.656010 0.000000
-2.849458 -2.869796 0.000000
-2.631869 -4.185342 0.000000
-2.944519 -0.874165 0.000000
-4.401846 -1.480051 0.000000
1.064357 -3.406295 0.000000
1.907641 -4.526271 0.000000
1.050485 -2.185180 0.000000
-0.799272 -3.176575 0.000000
2.762515 -0.347667 0.000000
3.899004 0.241051 0.000000
0.526681 0.794598 0.000000
-0.082724 0.110781 0.000000
0.115464 1.635290 0.000000
1.483903 1.862848 0.000000
1.103062 -1.072048 0.000000
-0.213713 -1.428248 0.000000
1.046686 4.099414 0.000000
2.237648 4.284418 0.000000
-2.627173 2.350665 0.000000
-4.375689 1.880367 0.000000
2.924253 -2.850589 0.000000
3.921292 -2.593503 0.000000
-1.206056 -0.486654 0.000000
-1.317393 -2.053106 0.000000
-3.079225 -1.920851 0.000000
-4.012200 -2.676326 0.000000
-2.603046 -3.117807 0.000000
-1.949668 -3.135774 0.000000
1.164016 1.603539 0.000000
2.545809 1.180618 0.000000
-0.109791 -3.181262 0.000000
-0.725622 -4.306541 0.000000
3.077414 3.053163 0.000000
3.505355 3.344346 0.000000
-0.254631 2.391913 0.000000
1.063520 2.633370 0.000000
-2.285156 2.223584 0.000000
-2.655057 1.391460 0.000000
-1.912671 4.372903 0.000000
-2.987668 3.602795 0.000000
3.333222 -0.982252 0.000000
3.464918 -1.722742 0.000000
-1.344643 -0.675390 0.000000
-2.030473 -1.078831 0.000000
0.197707 1.467152 0.000000
-0.535818 0.837282 0.000000
1.113578 -0.849422 0.000000
2.262801 -1.382799 0.000000
3.834929 0.137377 0.000000
4.807297 0.564722 0.000000
3.234348 2.449120 0.000000
3.064328 1.863506 0.000000
2.019691 3.288192 0.000000
2.224007 2.201511 0.000000
0.280910 -2.654080 0.000000
-0.423561 -2.252073 0.000000
-0.421143 3.232915 0.000000
-1.612472 3.218274 0.000000
-3.958722 -1.039247 0.000000
-4.656574 -0.784161 0.000000
3.634419 1.746556 0.000000
3.528233 1.144511 0.000000
3.171575 2.690737 0.000000
4.031311 2.563650 0.000000
1.881130 -2.395207 0.000000
1.741429 -2.984256 0.000000
-2.465243 -3.899449 0.000000
-1.978427 -4.506461 0.000000
3.876051 -1.144385 0.000000
4.727970 -1.287773 0.000000
-3.267220 2.312419 0.000000
-3.786128 2.875861 0.000000
-0.684301 -4.180102 0.000000
-1.160179 -4.782235 0.000000
-2.027596 2.386831 0.000000
-2.456125 2.935959 0.000000
-3.172909 0.410573 0.000000
-3.259641 0.941545 0.000000
-4.243040 1.884100 0.000000
-4.793659 1.417641 0.000000
-0.356969 3.502185 0.000000
0.341800 3.236185 0.000000
0.127064 0.113994 0.000000
-0.112718 -0.648472 0.000000
1.675969 -3.948385 0.000000
2.418088 -4.078368 0.000000
-3.835550 -2.231559 0.000000
-4.509765 -2.136339 0.000000
-2.947544 -2.940260 0.000000
-3.588425 -3.468685 0.000000
3.440556 -0.229533 0.000000
4.068433 -0.542589 0.000000
1.718506 -2.278993 0.000000
2.465082 -2.011071 0.000000
0.652473 0.643895 0.000000
1.319978 0.942867 0.000000
4.119281 -1.386986 0.000000
4.392557 -2.071577 0.000000
2.441140 -0.269917 0.000000
2.432808 -0.840372 0.000000
-3.033272 -2.110640 0.000000
-2.108588 -2.219556 0.000000
1.075021 -1.665718 0.000000
0.427067 -1.924952 0.000000
1.669839 -0.083317 0.000000
2.017636 0.470244 0.000000
2.014729 0.262135 0.000000
2.614167 0.571855 0.000000
-0.254290 3.933017 0.000000
-1.036103 3.902603 0.000000
-2.764815 -0.343299 0.000000
-3.454493 -0.377527 0.000000
-3.543078 -1.071593 0.000000
-3.769680 -1.633477 0.000000
-2.191268 -2.308300 0.000000
-1.605461 -2.689164 0.000000
0.202770 -2.759517 0.000000
-0.932931 -2.568958 0.000000
-0.580310 -3.706861 0.000000
-1.398815 -3.594590 0.000000
-1.235859 0.205469 0.000000
-0.805299 -0.031439 0.000000
1.130402 -0.493220 0.000000
0.628348 -0.594201 0.000000
0.358511 4.387325 0.000000
0.840352 4.863436 0.000000
1.321389 4.238578 0.000000
1.423747 4.761061 0.000000
3.957207 -0.373640 0.000000
4.703775 -0.386483 0.000000
2.396756 -2.778741 0.000000
2.551813 -3.348140 0.000000
3.943541 2.515493 0.000000
4.453694 2.246499 0.000000
-2.369293 0.330282 0.000000
-2.059809 -0.479780 0.000000
-3.302784 0.791408 0.000000
-3.735277 1.264247 0.000000
-0.663503 -4.085454 0.000000
-0.214767 -4.554992 0.000000
2.442780 3.194181 0.000000
2.713049 3.776038 0.000000
-1.023784 1.858828 0.000000
-1.566635 1.860944 0.000000
-4.054693 0.200020 0.000000
-4.580330 -0.215540 0.000000
-0.931191 -0.028310 0.000000
-0.576367 -0.432990 0.000000
-3.011201 2.327717 0.000000
-3.261734 1.703711 0.000000
-2.998402 -1.292839 0.000000
-2.034052 -1.676419 0.000000
-1.937657 0.615709 0.000000
-2.391860 1.066332 0.000000
-3.399405 -3.126310 0.000000
-3.718728 -2.993242 0.000000
4.387336 0.530594 0.000000
4.759103 1.170373 0.000000
-0.154733 0.978077 0.000000
-0.170143 0.568662 0.000000
0.913487 -4.023546 0.000000
1.237948 -4.559352 0.000000
3.387392 -1.639873 0.000000
3.354344 -2.204265 0.000000
0.077745 -2.928215 0.000000
0.371720 -3.389298 0.000000
-1.229899 0.067045 0.000000
-1.692740 -0.230236 0.000000
-4.409574 0.365794 0.000000
-4.931881 0.722382 0.000000
-2.280945 2.895849 0.000000
-2.390783 3.428383 0.000000
-1.207356 -1.013479 0.000000
-0.788511 -1.280429 0.000000
4.027543 1.692793 0.000000
4.634926 1.649123 0.000000
-0.203895 -3.286382 0.000000
0.148481 -3.998249 0.000000
3.677180 -0.009387 0.000000
3.502835 0.500423 0.000000
LINES 199 597
2 0 10
2 10 58
2 58 59
2 58 11
2 10 6
2 6 144
2 144 145
2 144 36
2 36 146
2 146 147
2 146 37
2 36 72
2 72 160
2 160 161
2 160 52
2 52 82
2 82 152
2 152 153
2 152 83
2 82 70
2 70 71
2 70 80
2 80 194
2 194 195
2 194 7
2 80 81
2 52 53
2 72 73
2 6 128
2 128 100
2 100 76
2 76 2
2 2 18
2 18 94
2 94 190
2 190 191
2 190 95
2 94 56
2 56 57
2 56 38
2 38 168
2 168 169
2 168 90
2 90 91
2 90 98
2 98 39
2 98 99
2 38 19
2 18 162
2 162 14
2 14 140
2 140 166
2 166 167
2 166 141
2 140 186
2 186 42
2 42 62
2 62 63
2 62 192
2 192 43
2 192 193
2 42 15
2 186 187
2 14 172
2 172 154
2 154 4
2 4 130
2 130 131
2 130 22
2 22 132
2 132 133
2 132 78
2 78 79
2 78 23
2 22 170
2 170 44
2 44 120
2 120 134
2 134 135
2 134 121
2 120 20
2 20 46
2 46 47
2 46 86
2 86 21
2 86 87
2 20 108
2 108 5
2 108 174
2 174 109
2 174 175
2 44 106
2 106 45
2 106 107
2 170 171
2 4 96
2 96 164
2 164 165
2 164 188
2 188 3
2 188 189
2 96 156
2 156 97
2 156 157
2 154 155
2 172 173
2 162 163
2 2 54
2 54 32
2 32 64
2 64 178
2 178 179
2 178 65
2 64 30
2 30 114
2 114 115
2 114 8
2 8 142
2 142 143
2 142 66
2 66 67
2 66 34
2 34 35
2 34 122
2 122 16
2 16 112
2 112 113
2 112 84
2 84 85
2 84 150
2 150 40
2 40 41
2 40 17
2 150 151
2 16 26
2 26 12
2 12 24
2 24 104
2 104 105
2 104 25
2 24 180
2 180 13
2 180 181
2 12 1
2 26 74
2 74 136
2 136 137
2 136 184
2 184 50
2 50 27
2 50 196
2 196 138
2 138 158
2 158 159
2 158 92
2 92 51
2 92 93
2 138 139
2 196 197
2 184 185
2 74 75
2 122 123
2 8 124
2 124 118
2 118 28
2 28 60
2 60 182
2 182 183
2 182 61
2 60 88
2 88 9
2 88 116
2 116 89
2 116 117
2 28 110
2 110 198
2 198 199
2 198 68
2 68 29
2 68 176
2 176 69
2 176 177
2 110 148
2 148 111
2 148 149
2 118 119
2 124 126
2 126 125
2 126 127
2 30 102
2 102 31
2 102 103
2 32 48
2 48 33
2 48 49
2 54 55
2 76 77
2 100 101
2 128 129
POINT_DATA 200
SCALARS FMMTime float
LOOKUP_TABLE default
1.188112
0.301684
0.276884
0.184005
1.181592
0.555394
0.182382
0.548760
0.261138
0.192306
0.220329
0.528294
0.512739
0.210753
0.500585
0.487435
0.325000
0.300195
0.193769
0.433534
0.239720
0.407579
0.356474
0.336275
0.193743
0.281929
0.212735
0.232969
1.139186
1.137507
1.135834
1.133412
0.860880
0.486923
0.272313
0.241376
0.183017
0.456695
0.230086
0.436334
0.419902
0.233786
0.394205
0.250920
0.356898
0.215206
0.328637
0.208287
0.805464
0.802404
0.456008
0.266470
0.241917
0.168253
0.423401
0.405678
0.391985
0.259188
0.349844
0.300862
0.249783
0.186957
0.209070
0.749959
0.745136
0.738537
0.684993
0.218407
0.677510
0.381942
0.241751
0.346464
0.280800
0.268921
0.634359
0.619958
0.578456
0.349272
0.322615
0.208240
0.532449
0.456973
0.285502
0.416316
0.291975
0.361559
0.381497
0.183639
0.366751
0.295484
0.286560
0.354955
0.268797
0.293570
0.257094
0.433416
0.385569
0.268195
0.336284
0.201370
0.310252
0.288838
0.183775
0.261541
0.221686
0.200705
0.181044
0.935228
0.931053
0.920068
0.259335
0.206051
0.205617
0.913148
0.904238
0.201964
0.900867
0.782710
0.193843
0.778727
0.246820
0.770373
0.253929
0.761064
0.754803
0.475869
0.249100
0.451933
0.238583
0.428584
0.394091
0.331209
0.291903
0.259716
0.685604
0.488521
0.478160
0.377405
0.306513
0.292241
0.381603
0.324769
0.277261
0.193650
0.590292
0.574100
0.281281
0.550647
0.535238
0.262620
0.513274
0.484813
0.440079
0.318745
0.375265
0.223669
0.346653
0.306247
0.277068
0.238864
0.254406
0.220981
0.631295
0.613040
0.604446
0.469942
0.335884
0.307767
0.206001
0.403901
0.185147
0.390492
0.302876
0.316684
0.489172
0.431645
0.246967
0.402813
0.178415
0.390791
0.286963
0.330345
0.332108
0.215441
0.298625
0.212188
0.276769
0.183772
0.246591
0.280508
0.180926
0.252765
0.304499
0.199347
0.272842
0.221759
0.210696
0.186462
0.186914
0.000000
