# vtk DataFile Version 3.0
vtk output
ASCII
DATASET POLYDATA
POINTS  200  float
0.0000000  50.0000000  0.0000000
12.3338453  -25.7925212  0.0000000
-5.0136123  28.9632767  0.0000000
-45.2106530  3.7870657  0.0000000
-25.8511161  1.8756833  0.0000000
-29.9337710  -30.5092417  0.0000000
-1.0027225  45.7926553  0.0000000
40.8442527  16.5720646  0.0000000
11.5563927  0.4108319  0.0000000
39.4525105  -12.4345296  0.0000000
-0.5013612  47.8963277  0.0000000
-21.6003007  44.4594228  0.0000000
10.4610350  -22.7794070  0.0000000
1.8921416  -49.5410061  0.0000000
-15.0602000  9.0113597  0.0000000
-10.4087626  -6.7664222  0.0000000
10.6801065  -18.1413592  0.0000000
32.3737150  -33.8710745  0.0000000
-7.0229299  24.9728933  0.0000000
-30.4414804  26.5600978  0.0000000
-28.4945807  -28.6979557  0.0000000
-26.3186932  -41.8534230  0.0000000
-29.4451926  -8.7416533  0.0000000
-44.0184642  -14.8005070  0.0000000
10.6435685  -34.0629526  0.0000000
19.0764103  -45.2627144  0.0000000
10.5048493  -21.8517974  0.0000000
-7.9927208  -31.7657504  0.0000000
27.6251484  -3.4766683  0.0000000
38.9900413  2.4105100  0.0000000
5.2668097  7.9459834  0.0000000
-0.8272428  1.1078061  0.0000000
1.1546409  16.3529007  0.0000000
14.8390267  18.6284846  0.0000000
11.0306210  -10.7204828  0.0000000
-2.1371337  -14.2824782  0.0000000
10.4668636  40.9941381  0.0000000
22.3764841  42.8441780  0.0000000
-26.2717341  23.5066466  0.0000000
-43.7568925  18.8036678  0.0000000
29.2425296  -28.5058863  0.0000000
39.2129169  -25.9350295  0.0000000
-12.0605624  -4.8665416  0.0000000
-13.1739259  -20.5310638  0.0000000
-30.7922489  -19.2085053  0.0000000
-40.1219976  -26.7632598  0.0000000
-26.0304596  -31.1780700  0.0000000
-19.4966773  -31.3577428  0.0000000
11.6401587  16.0353869  0.0000000
25.4580850  11.8061826  0.0000000
-1.0979138  -31.8126181  0.0000000
-7.2562153  -43.0654090  0.0000000
30.7741440  30.5316341  0.0000000
35.0535540  33.4434644  0.0000000
-2.5463110  23.9191263  0.0000000
10.6351968  26.3337033  0.0000000
-22.8515637  22.2358439  0.0000000
-26.5505739  13.9146021  0.0000000
-19.1267120  43.7290307  0.0000000
-29.8766779  36.0279540  0.0000000
33.3322197  -9.8225204  0.0000000
34.6491826  -17.2274150  0.0000000
-13.4464306  -6.7538952  0.0000000
-20.3047274  -10.7883056  0.0000000
1.9770747  14.6715173  0.0000000
-5.3581834  8.3728198  0.0000000
11.1357754  -8.4942198  0.0000000
22.6280082  -13.8279877  0.0000000
38.3492919  1.3737740  0.0000000
48.0729651  5.6472235  0.0000000
32.3434833  24.4911999  0.0000000
30.6432750  18.6350618  0.0000000
20.1969089  32.8819201  0.0000000
22.2400718  22.0151103  0.0000000
2.8091043  -26.5408045  0.0000000
-4.2356130  -22.5207323  0.0000000
-4.2114344  32.3291524  0.0000000
-16.1247230  32.1827408  0.0000000
-39.5872156  -10.3924718  0.0000000
-46.5657430  -7.8416073  0.0000000
36.3441913  17.4655617  0.0000000
35.2823302  11.4451079  0.0000000
31.7157476  26.9073736  0.0000000
40.3131119  25.6364968  0.0000000
18.8112967  -23.9520718  0.0000000
17.4142903  -29.8425608  0.0000000
-24.6524326  -38.9944890  0.0000000
-19.7842715  -45.0646149  0.0000000
38.7605148  -11.4438529  0.0000000
47.2797040  -12.8777263  0.0000000
-32.6722021  23.1241855  0.0000000
-37.8612768  28.7586053  0.0000000
-6.8430137  -41.8010172  0.0000000
-11.6017945  -47.8223504  0.0000000
-20.2759600  23.8683123  0.0000000
-24.5612539  29.3595910  0.0000000
-31.7290851  4.1057311  0.0000000
-32.5964114  9.4154487  0.0000000
-42.4303996  18.8409999  0.0000000
-47.9365883  14.1764111  0.0000000
-3.5696920  35.0218530  0.0000000
3.4180015  32.3618529  0.0000000
1.2706364  1.1399426  0.0000000
-1.1271793  -6.4847170  0.0000000
16.7596892  -39.4838460  0.0000000
24.1808789  -40.7836793  0.0000000
-38.3554959  -22.3155885  0.0000000
-45.0976473  -21.3633859  0.0000000
-29.4754413  -29.4025991  0.0000000
-35.8842511  -34.6868520  0.0000000
34.4055606  -2.2953317  0.0000000
40.6843293  -5.4258924  0.0000000
17.1850587  -22.7899292  0.0000000
24.6508228  -20.1107139  0.0000000
6.5247263  6.4389531  0.0000000
13.1997849  9.4286663  0.0000000
41.1928147  -13.8698560  0.0000000
43.9255707  -20.7157730  0.0000000
24.4113973  -2.6991682  0.0000000
24.3280823  -8.4037228  0.0000000
-30.3327152  -21.1063954  0.0000000
-21.0858813  -22.1955555  0.0000000
10.7502094  -16.6571839  0.0000000
4.2706685  -19.2495166  0.0000000
16.6983945  -0.8331682  0.0000000
20.1763608  4.7024440  0.0000000
20.1472887  2.6213515  0.0000000
26.1416682  5.7185463  0.0000000
-2.5429042  39.3301739  0.0000000
-10.3610289  39.0260341  0.0000000
-27.6481544  -3.4329850  0.0000000
-34.5449347  -3.7752672  0.0000000
-35.4307810  -10.7159291  0.0000000
-37.6968037  -16.3347739  0.0000000
-21.9126798  -23.0830008  0.0000000
-16.0546106  -26.8916411  0.0000000
2.0277007  -27.5951672  0.0000000
-9.3293139  -25.6895817  0.0000000
-5.8030979  -37.0686071  0.0000000
-13.9881523  -35.9459022  0.0000000
-12.3585930  2.0546939  0.0000000
-8.0529907  -0.3143878  0.0000000
11.3040223  -4.9321991  0.0000000
6.2834784  -5.9420078  0.0000000
3.5851120  43.8732484  0.0000000
8.4035243  48.6343616  0.0000000
13.2138925  42.3857815  0.0000000
14.2374712  47.6106145  0.0000000
39.5720677  -3.7364008  0.0000000
47.0377512  -3.8648254  0.0000000
23.9675567  -27.7874074  0.0000000
25.5181335  -33.4813996  0.0000000
39.4354113  25.1549280  0.0000000
44.5369433  22.4649898  0.0000000
-23.6929329  3.3028186  0.0000000
-20.5980899  -4.7978005  0.0000000
-33.0278440  7.9140790  0.0000000
-37.3527652  12.6424676  0.0000000
-6.6350306  -40.8545352  0.0000000
-2.1476706  -45.5499230  0.0000000
24.4278029  31.9418057  0.0000000
27.1304898  37.7603828  0.0000000
-10.2378379  18.5882799  0.0000000
-15.6663474  18.6094396  0.0000000
-40.5469341  2.0001961  0.0000000
-45.8032952  -2.1554004  0.0000000
-9.3119077  -0.2830962  0.0000000
-5.7636741  -4.3298992  0.0000000
-30.1120149  23.2771699  0.0000000
-32.6173357  17.0371117  0.0000000
-29.9840151  -12.9283941  0.0000000
-20.3405162  -16.7641949  0.0000000
-19.3765664  6.1570891  0.0000000
-23.9186021  10.6633223  0.0000000
-33.9940482  -31.2631015  0.0000000
-37.1872781  -29.9324161  0.0000000
43.8733578  5.3059353  0.0000000
47.5910294  11.7037258  0.0000000
-1.5473299  9.7807667  0.0000000
-1.7014315  5.6866190  0.0000000
9.1348730  -40.2354611  0.0000000
12.3794784  -45.5935225  0.0000000
33.8739161  -16.3987253  0.0000000
33.5434375  -22.0426544  0.0000000
0.7774549  -29.2821475  0.0000000
3.7171994  -33.8929809  0.0000000
-12.2989869  0.6704468  0.0000000
-16.9273998  -2.3023618  0.0000000
-44.0957448  3.6579365  0.0000000
-49.3188094  7.2238239  0.0000000
-22.8094531  28.9584866  0.0000000
-23.9078322  34.2838281  0.0000000
-12.0735626  -10.1347924  0.0000000
-7.8851082  -12.8042852  0.0000000
40.2754276  16.9279340  0.0000000
46.3492556  16.4912341  0.0000000
-2.0389506  -32.8638159  0.0000000
1.4848094  -39.9824882  0.0000000
36.7717994  -0.0938683  0.0000000
35.0283531  5.0042346  0.0000000

LINES  199  597
2  0  10
2  10  58
2  58  59
2  58  11
2  10  6
2  6  144
2  144  145
2  144  36
2  36  146
2  146  147
2  146  37
2  36  72
2  72  160
2  160  161
2  160  52
2  52  82
2  82  152
2  152  153
2  152  83
2  82  70
2  70  71
2  70  80
2  80  194
2  194  195
2  194  7
2  80  81
2  52  53
2  72  73
2  6  128
2  128  100
2  100  76
2  76  2
2  2  18
2  18  94
2  94  190
2  190  191
2  190  95
2  94  56
2  56  57
2  56  38
2  38  168
2  168  169
2  168  90
2  90  91
2  90  98
2  98  39
2  98  99
2  38  19
2  18  162
2  162  14
2  14  140
2  140  166
2  166  167
2  166  141
2  140  186
2  186  42
2  42  62
2  62  63
2  62  192
2  192  43
2  192  193
2  42  15
2  186  187
2  14  172
2  172  154
2  154  4
2  4  130
2  130  131
2  130  22
2  22  132
2  132  133
2  132  78
2  78  79
2  78  23
2  22  170
2  170  44
2  44  120
2  120  134
2  134  135
2  134  121
2  120  20
2  20  46
2  46  47
2  46  86
2  86  21
2  86  87
2  20  108
2  108  5
2  108  174
2  174  109
2  174  175
2  44  106
2  106  45
2  106  107
2  170  171
2  4  96
2  96  164
2  164  165
2  164  188
2  188  3
2  188  189
2  96  156
2  156  97
2  156  157
2  154  155
2  172  173
2  162  163
2  2  54
2  54  32
2  32  64
2  64  178
2  178  179
2  178  65
2  64  30
2  30  114
2  114  115
2  114  8
2  8  142
2  142  143
2  142  66
2  66  67
2  66  34
2  34  35
2  34  122
2  122  16
2  16  112
2  112  113
2  112  84
2  84  85
2  84  150
2  150  40
2  40  41
2  40  17
2  150  151
2  16  26
2  26  12
2  12  24
2  24  104
2  104  105
2  104  25
2  24  180
2  180  13
2  180  181
2  12  1
2  26  74
2  74  136
2  136  137
2  136  184
2  184  50
2  50  27
2  50  196
2  196  138
2  138  158
2  158  159
2  158  92
2  92  51
2  92  93
2  138  139
2  196  197
2  184  185
2  74  75
2  122  123
2  8  124
2  124  118
2  118  28
2  28  60
2  60  182
2  182  183
2  182  61
2  60  88
2  88  9
2  88  116
2  116  89
2  116  117
2  28  110
2  110  198
2  198  199
2  198  68
2  68  29
2  68  176
2  176  69
2  176  177
2  110  148
2  148  111
2  148  149
2  118  119
2  124  126
2  126  125
2  126  127
2  30  102
2  102  31
2  102  103
2  32  48
2  48  33
2  48  49
2  54  55
2  76  77
2  100  101
2  128  129

CELL_DATA  199
scalars raio float
LOOKUP_TABLE default
1.1881118
0.3016840
0.2768840
0.1840047
1.1815924
0.5553944
0.1823822
0.5487597
0.2611375
0.1923065
0.2203290
0.5282944
0.5127392
0.2107527
0.5005846
0.4874354
0.3249999
0.3001953
0.1937690
0.4335337
0.2397203
0.4075795
0.3564744
0.3362750
0.1937427
0.2819293
0.2127351
0.2329694
1.1391864
1.1375066
1.1358341
1.1334122
0.8608797
0.4869230
0.2723133
0.2413758
0.1830166
0.4566954
0.2300863
0.4363342
0.4199024
0.2337863
0.3942051
0.2509200
0.3568983
0.2152062
0.3286366
0.2082870
0.8054643
0.8024038
0.4560077
0.2664698
0.2419171
0.1682528
0.4234014
0.4056776
0.3919851
0.2591879
0.3498438
0.3008616
0.2497827
0.1869569
0.2090700
0.7499588
0.7451363
0.7385374
0.6849928
0.2184072
0.6775100
0.3819419
0.2417510
0.3464644
0.2808004
0.2689209
0.6343588
0.6199582
0.5784561
0.3492715
0.3226146
0.2082397
0.5324488
0.4569730
0.2855022
0.4163158
0.2919748
0.3615589
0.3814970
0.1836391
0.3667506
0.2954837
0.2865598
0.3549549
0.2687969
0.2935696
0.2570939
0.4334162
0.3855691
0.2681945
0.3362838
0.2013704
0.3102519
0.2888380
0.1837754
0.2615406
0.2216859
0.2007047
0.1810441
0.9352278
0.9310531
0.9200675
0.2593352
0.2060513
0.2056171
0.9131477
0.9042377
0.2019636
0.9008668
0.7827104
0.1938425
0.7787271
0.2468204
0.7703726
0.2539290
0.7610643
0.7548028
0.4758693
0.2490995
0.4519334
0.2385826
0.4285839
0.3940914
0.3312088
0.2919027
0.2597161
0.6856042
0.4885209
0.4781597
0.3774054
0.3065127
0.2922410
0.3816027
0.3247692
0.2772614
0.1936501
0.5902916
0.5740998
0.2812810
0.5506474
0.5352378
0.2626205
0.5132736
0.4848131
0.4400794
0.3187446
0.3752651
0.2236695
0.3466526
0.3062473
0.2770678
0.2388638
0.2544058
0.2209806
0.6312950
0.6130398
0.6044464
0.4699419
0.3358841
0.3077669
0.2060014
0.4039008
0.1851474
0.3904923
0.3028758
0.3166845
0.4891716
0.4316453
0.2469674
0.4028132
0.1784146
0.3907909
0.2869632
0.3303448
0.3321082
0.2154410
0.2986252
0.2121877
0.2767693
0.1837720
0.2465911
0.2805079
0.1809257
0.2527652
0.3044991
0.1993465
0.2728425
0.2217588
0.2106961
0.1864618
0.1869135
