# vtk DataFile Version 3.0
vtk output
ASCII
DATASET POLYDATA
POINTS  100  float
0.0000000  50.0000000  0.0000000
12.3338453  -25.7925212  0.0000000
-5.0136123  28.9632767  0.0000000
-45.2106530  3.7870657  0.0000000
-25.8511161  1.8756833  0.0000000
-29.9337710  -30.5092417  0.0000000
-1.0027225  45.7926553  0.0000000
40.8442527  16.5720646  0.0000000
11.5563927  0.4108319  0.0000000
39.4525105  -12.4345296  0.0000000
-0.5013612  47.8963277  0.0000000
-21.6003007  44.4594228  0.0000000
10.4610350  -22.7794070  0.0000000
1.8921416  -49.5410061  0.0000000
-15.0602000  9.0113597  0.0000000
-10.4087626  -6.7664222  0.0000000
10.6801065  -18.1413592  0.0000000
32.3737150  -33.8710745  0.0000000
-7.0229299  24.9728933  0.0000000
-30.4414804  26.5600978  0.0000000
-28.4945807  -28.6979557  0.0000000
-26.3186932  -41.8534230  0.0000000
-29.4451926  -8.7416533  0.0000000
-44.0184642  -14.8005070  0.0000000
10.6435685  -34.0629526  0.0000000
19.0764103  -45.2627144  0.0000000
10.5486636  -20.9241879  0.0000000
-7.9927208  -31.7657504  0.0000000
27.6251484  -3.4766683  0.0000000
38.9900413  2.4105100  0.0000000
5.2668097  7.9459834  0.0000000
-0.8272428  1.1078061  0.0000000
1.1546409  16.3529007  0.0000000
14.8390267  18.6284846  0.0000000
11.0306210  -10.7204828  0.0000000
-2.1371337  -14.2824782  0.0000000
10.4668636  40.9941381  0.0000000
22.3764841  42.8441780  0.0000000
-26.2717341  23.5066466  0.0000000
-43.7568925  18.8036678  0.0000000
29.2425296  -28.5058863  0.0000000
39.2129169  -25.9350295  0.0000000
-12.0605624  -4.8665416  0.0000000
-13.1739259  -20.5310638  0.0000000
-30.7922489  -19.2085053  0.0000000
-40.1219976  -26.7632598  0.0000000
-26.0304596  -31.1780700  0.0000000
-19.4966773  -31.3577428  0.0000000
11.6401587  16.0353869  0.0000000
25.4580850  11.8061826  0.0000000
-1.0821406  -31.4786786  0.0000000
-7.2562153  -43.0654090  0.0000000
30.7741440  30.5316341  0.0000000
35.0535540  33.4434644  0.0000000
-2.5463110  23.9191263  0.0000000
10.6351968  26.3337033  0.0000000
-22.8515637  22.2358439  0.0000000
-26.5505739  13.9146021  0.0000000
-19.1267120  43.7290307  0.0000000
-29.8766779  36.0279540  0.0000000
33.3322197  -9.8225204  0.0000000
34.6491826  -17.2274150  0.0000000
-13.4464306  -6.7538952  0.0000000
-20.3047274  -10.7883056  0.0000000
1.9770747  14.6715173  0.0000000
-5.3581834  8.3728198  0.0000000
11.1357754  -8.4942198  0.0000000
22.6280082  -13.8279877  0.0000000
38.3492919  1.3737740  0.0000000
48.0729651  5.6472235  0.0000000
32.3434833  24.4911999  0.0000000
30.6432750  18.6350618  0.0000000
20.1969089  32.8819201  0.0000000
22.2400718  22.0151103  0.0000000
2.8330094  -26.0347007  0.0000000
-4.2356130  -22.5207323  0.0000000
-4.2114344  32.3291524  0.0000000
-16.1247230  32.1827408  0.0000000
-39.5872156  -10.3924718  0.0000000
-46.5657430  -7.8416073  0.0000000
36.3441913  17.4655617  0.0000000
35.2823302  11.4451079  0.0000000
31.7157476  26.9073736  0.0000000
40.3131119  25.6364968  0.0000000
18.8112967  -23.9520718  0.0000000
17.4142903  -29.8425608  0.0000000
-24.6524326  -38.9944890  0.0000000
-19.7842715  -45.0646149  0.0000000
38.7605148  -11.4438529  0.0000000
47.2797040  -12.8777263  0.0000000
-32.6722021  23.1241855  0.0000000
-37.8612768  28.7586053  0.0000000
-6.8401745  -41.7409081  0.0000000
-11.6017945  -47.8223504  0.0000000
-20.2759600  23.8683123  0.0000000
-24.5612539  29.3595910  0.0000000
-31.7290851  4.1057311  0.0000000
-32.5964114  9.4154487  0.0000000
-42.4303996  18.8409999  0.0000000
-47.9365883  14.1764111  0.0000000

LINES  99  297
2  0  10
2  10  58
2  58  59
2  58  11
2  10  6
2  6  36
2  36  37
2  36  72
2  72  52
2  52  82
2  82  83
2  82  70
2  70  71
2  70  80
2  80  7
2  80  81
2  52  53
2  72  73
2  6  76
2  76  2
2  2  18
2  18  94
2  94  95
2  94  56
2  56  57
2  56  38
2  38  90
2  90  91
2  90  98
2  98  39
2  98  99
2  38  19
2  18  14
2  14  42
2  42  62
2  62  63
2  62  43
2  42  15
2  14  4
2  4  22
2  22  78
2  78  79
2  78  23
2  22  44
2  44  20
2  20  46
2  46  47
2  46  86
2  86  21
2  86  87
2  20  5
2  44  45
2  4  96
2  96  3
2  96  97
2  2  54
2  54  32
2  32  64
2  64  65
2  64  30
2  30  8
2  8  66
2  66  67
2  66  34
2  34  35
2  34  16
2  16  84
2  84  85
2  84  40
2  40  41
2  40  17
2  16  26
2  26  12
2  12  24
2  24  25
2  24  13
2  12  1
2  26  74
2  74  50
2  50  27
2  50  92
2  92  51
2  92  93
2  74  75
2  8  28
2  28  60
2  60  61
2  60  88
2  88  9
2  88  89
2  28  68
2  68  29
2  68  69
2  30  31
2  32  48
2  48  33
2  48  49
2  54  55
2  76  77

CELL_DATA  99
scalars raio float
LOOKUP_TABLE default
1.1765014
0.3588216
0.3293247
0.2188544
1.1652687
0.5790170
0.2610240
0.5607655
0.5367572
0.5161957
0.3081392
0.4766414
0.2937581
0.4360971
0.3332878
0.3580850
0.2576297
0.2788944
1.1155210
1.1112715
0.8434158
0.5380996
0.2493197
0.5196318
0.2749429
0.4925916
0.4704149
0.2994291
0.4258958
0.2568111
0.3921703
0.2489417
0.7629781
0.4418914
0.4218775
0.3104433
0.3561289
0.2237459
0.7099725
0.6707051
0.4148194
0.3362004
0.3219772
0.6129885
0.5760432
0.5588822
0.3491718
0.5091581
0.3570878
0.4421899
0.2549906
0.3396635
0.3829409
0.3343818
0.2657508
0.9175059
0.9101216
0.8903404
0.2512912
0.8836171
0.8765722
0.7859609
0.2964417
0.7716446
0.3052355
0.7553841
0.5045750
0.2879358
0.4711558
0.3959764
0.3489841
0.6713342
0.5000942
0.4821006
0.3709521
0.3936610
0.2352560
0.5619878
0.5292542
0.3250222
0.4847591
0.2910048
0.4469270
0.3080886
0.5728901
0.4822718
0.3242648
0.4274010
0.2440373
0.3990406
0.4233120
0.2320309
0.3986673
0.2539140
0.3636636
0.2380797
0.3258561
0.2644741
0.2509497
