# vtk DataFile Version 3.0
vtk output
ASCII
DATASET POLYDATA
POINTS  500  float
0.0000000  50.0000000  0.0000000
12.3338453  -25.7925212  0.0000000
-5.0136123  28.9632767  0.0000000
-45.2106530  3.7870657  0.0000000
-25.8511161  1.8756833  0.0000000
-29.9337710  -30.5092417  0.0000000
-1.0027225  45.7926553  0.0000000
40.8442527  16.5720646  0.0000000
11.5563927  0.4108319  0.0000000
39.4525105  -12.4345296  0.0000000
-0.5013612  47.8963277  0.0000000
-21.6003007  44.4594228  0.0000000
10.4610350  -22.7794070  0.0000000
1.8921416  -49.5410061  0.0000000
-15.0602000  9.0113597  0.0000000
-10.4087626  -6.7664222  0.0000000
10.6801065  -18.1413592  0.0000000
32.3737150  -33.8710745  0.0000000
-7.0229299  24.9728933  0.0000000
-30.4414804  26.5600978  0.0000000
-28.4945807  -28.6979557  0.0000000
-26.3186932  -41.8534230  0.0000000
-29.4451926  -8.7416533  0.0000000
-44.0184642  -14.8005070  0.0000000
10.6435685  -34.0629526  0.0000000
19.0764103  -45.2627144  0.0000000
10.5048493  -21.8517974  0.0000000
-7.9927208  -31.7657504  0.0000000
27.6251484  -3.4766683  0.0000000
38.9900413  2.4105100  0.0000000
5.2668097  7.9459834  0.0000000
-0.8272428  1.1078061  0.0000000
1.1546409  16.3529007  0.0000000
14.8390267  18.6284846  0.0000000
11.0306210  -10.7204828  0.0000000
-2.1371337  -14.2824782  0.0000000
10.4668636  40.9941381  0.0000000
22.3764841  42.8441780  0.0000000
-26.2717341  23.5066466  0.0000000
-43.7568925  18.8036678  0.0000000
29.2425296  -28.5058863  0.0000000
39.2129169  -25.9350295  0.0000000
-12.0605624  -4.8665416  0.0000000
-13.1739259  -20.5310638  0.0000000
-30.7922489  -19.2085053  0.0000000
-40.1219976  -26.7632598  0.0000000
-26.0304596  -31.1780700  0.0000000
-19.4966773  -31.3577428  0.0000000
11.6401587  16.0353869  0.0000000
25.4580850  11.8061826  0.0000000
-1.0979138  -31.8126181  0.0000000
-7.2562153  -43.0654090  0.0000000
30.7741440  30.5316341  0.0000000
35.0535540  33.4434644  0.0000000
-2.5463110  23.9191263  0.0000000
10.6351968  26.3337033  0.0000000
-22.8515637  22.2358439  0.0000000
-26.5505739  13.9146021  0.0000000
-19.1267120  43.7290307  0.0000000
-29.8766779  36.0279540  0.0000000
33.3322197  -9.8225204  0.0000000
34.6491826  -17.2274150  0.0000000
-13.4464306  -6.7538952  0.0000000
-20.3047274  -10.7883056  0.0000000
1.9770747  14.6715173  0.0000000
-5.3581834  8.3728198  0.0000000
11.1357754  -8.4942198  0.0000000
22.6280082  -13.8279877  0.0000000
38.3492919  1.3737740  0.0000000
48.0729651  5.6472235  0.0000000
32.3434833  24.4911999  0.0000000
30.6432750  18.6350618  0.0000000
20.1969089  32.8819201  0.0000000
22.2400718  22.0151103  0.0000000
2.8091043  -26.5408045  0.0000000
-4.2356130  -22.5207323  0.0000000
-4.2114344  32.3291524  0.0000000
-16.1247230  32.1827408  0.0000000
-39.5872156  -10.3924718  0.0000000
-46.5657430  -7.8416073  0.0000000
36.3441913  17.4655617  0.0000000
35.2823302  11.4451079  0.0000000
31.7157476  26.9073736  0.0000000
40.3131119  25.6364968  0.0000000
18.8112967  -23.9520718  0.0000000
17.4142903  -29.8425608  0.0000000
-24.6524326  -38.9944890  0.0000000
-19.7842715  -45.0646149  0.0000000
38.7605148  -11.4438529  0.0000000
47.2797040  -12.8777263  0.0000000
-32.6722021  23.1241855  0.0000000
-37.8612768  28.7586053  0.0000000
-6.8430137  -41.8010172  0.0000000
-11.6017945  -47.8223504  0.0000000
-20.2759600  23.8683123  0.0000000
-24.5612539  29.3595910  0.0000000
-31.7290851  4.1057311  0.0000000
-32.5964114  9.4154487  0.0000000
-42.4303996  18.8409999  0.0000000
-47.9365883  14.1764111  0.0000000
-3.5696920  35.0218530  0.0000000
3.4180015  32.3618529  0.0000000
1.2706364  1.1399426  0.0000000
-1.1271793  -6.4847170  0.0000000
16.7596892  -39.4838460  0.0000000
24.1808789  -40.7836793  0.0000000
-38.3554959  -22.3155885  0.0000000
-45.0976473  -21.3633859  0.0000000
-29.4754413  -29.4025991  0.0000000
-35.8842511  -34.6868520  0.0000000
34.4055606  -2.2953317  0.0000000
40.6843293  -5.4258924  0.0000000
17.1850587  -22.7899292  0.0000000
24.6508228  -20.1107139  0.0000000
6.5247263  6.4389531  0.0000000
13.1997849  9.4286663  0.0000000
41.1928147  -13.8698560  0.0000000
43.9255707  -20.7157730  0.0000000
24.4113973  -2.6991682  0.0000000
24.3280823  -8.4037228  0.0000000
-30.3327152  -21.1063954  0.0000000
-21.0858813  -22.1955555  0.0000000
10.7502094  -16.6571839  0.0000000
4.2706685  -19.2495166  0.0000000
16.6983945  -0.8331682  0.0000000
20.1763608  4.7024440  0.0000000
20.1472887  2.6213515  0.0000000
26.1416682  5.7185463  0.0000000
-2.5429042  39.3301739  0.0000000
-10.3610289  39.0260341  0.0000000
-27.6481544  -3.4329850  0.0000000
-34.5449347  -3.7752672  0.0000000
-35.4307810  -10.7159291  0.0000000
-37.6968037  -16.3347739  0.0000000
-21.9126798  -23.0830008  0.0000000
-16.0546106  -26.8916411  0.0000000
2.0277007  -27.5951672  0.0000000
-9.3293139  -25.6895817  0.0000000
-5.8030979  -37.0686071  0.0000000
-13.9881523  -35.9459022  0.0000000
-12.3585930  2.0546939  0.0000000
-8.0529907  -0.3143878  0.0000000
11.3040223  -4.9321991  0.0000000
6.2834784  -5.9420078  0.0000000
3.5851120  43.8732484  0.0000000
8.4035243  48.6343616  0.0000000
13.2138925  42.3857815  0.0000000
14.2374712  47.6106145  0.0000000
39.5720677  -3.7364008  0.0000000
47.0377512  -3.8648254  0.0000000
23.9675567  -27.7874074  0.0000000
25.5181335  -33.4813996  0.0000000
39.4354113  25.1549280  0.0000000
44.5369433  22.4649898  0.0000000
-23.6929329  3.3028186  0.0000000
-20.5980899  -4.7978005  0.0000000
-33.0278440  7.9140790  0.0000000
-37.3527652  12.6424676  0.0000000
-6.6350306  -40.8545352  0.0000000
-2.1476706  -45.5499230  0.0000000
24.4278029  31.9418057  0.0000000
27.1304898  37.7603828  0.0000000
-10.2378379  18.5882799  0.0000000
-15.6663474  18.6094396  0.0000000
-40.5469341  2.0001961  0.0000000
-45.8032952  -2.1554004  0.0000000
-9.3119077  -0.2830962  0.0000000
-5.7636741  -4.3298992  0.0000000
-30.1120149  23.2771699  0.0000000
-32.6173357  17.0371117  0.0000000
-29.9840151  -12.9283941  0.0000000
-20.3405162  -16.7641949  0.0000000
-19.3765664  6.1570891  0.0000000
-23.9186021  10.6633223  0.0000000
-33.9940482  -31.2631015  0.0000000
-37.1872781  -29.9324161  0.0000000
43.8733578  5.3059353  0.0000000
47.5910294  11.7037258  0.0000000
-1.5473299  9.7807667  0.0000000
-1.7014315  5.6866190  0.0000000
9.1348730  -40.2354611  0.0000000
12.3794784  -45.5935225  0.0000000
33.8739161  -16.3987253  0.0000000
33.5434375  -22.0426544  0.0000000
0.7774549  -29.2821475  0.0000000
3.7171994  -33.8929809  0.0000000
-12.2989869  0.6704468  0.0000000
-16.9273998  -2.3023618  0.0000000
-44.0957448  3.6579365  0.0000000
-49.3188094  7.2238239  0.0000000
-22.8094531  28.9584866  0.0000000
-23.9078322  34.2838281  0.0000000
-12.0735626  -10.1347924  0.0000000
-7.8851082  -12.8042852  0.0000000
40.2754276  16.9279340  0.0000000
46.3492556  16.4912341  0.0000000
-2.0389506  -32.8638159  0.0000000
1.4848094  -39.9824882  0.0000000
36.7717994  -0.0938683  0.0000000
35.0283531  5.0042346  0.0000000
-4.0844856  8.2930251  0.0000000
-6.4483490  4.5302288  0.0000000
43.4719359  -4.9874160  0.0000000
45.2451336  -8.7670290  0.0000000
14.3588817  37.7492509  0.0000000
10.9776078  31.3992280  0.0000000
25.6970711  31.6597714  0.0000000
27.0627333  25.6489571  0.0000000
13.0363077  32.9806887  0.0000000
14.7653859  28.9927818  0.0000000
45.5276398  -3.5915489  0.0000000
49.9573097  0.1738525  0.0000000
-37.3541442  4.0231487  0.0000000
-41.5343885  9.6430045  0.0000000
32.6677589  -13.5955228  0.0000000
27.8928106  -17.7852987  0.0000000
-0.6958351  20.1360135  0.0000000
-4.9245833  16.7870441  0.0000000
22.5439302  23.4976347  0.0000000
25.3790478  18.2310529  0.0000000
25.7718169  -32.4208427  0.0000000
29.2886570  -39.0268989  0.0000000
-35.3069266  27.6817051  0.0000000
-34.5693401  32.2536160  0.0000000
-11.4075453  -38.3596740  0.0000000
-15.1319417  -42.2258959  0.0000000
4.7002983  -18.8728669  0.0000000
-0.3336288  -19.8118298  0.0000000
9.5060610  -36.2416790  0.0000000
5.9857766  -37.6496665  0.0000000
30.3373133  -3.0041336  0.0000000
30.9167711  3.1509481  0.0000000
-36.5774457  22.3393585  0.0000000
-41.2229040  25.1791935  0.0000000
32.0210755  -31.4592555  0.0000000
36.3839581  -33.2109081  0.0000000
19.7835956  -1.5795682  0.0000000
19.9722357  -7.1832650  0.0000000
-24.2194801  -35.2468039  0.0000000
-20.4369168  -37.0578676  0.0000000
-29.0857850  -7.6799197  0.0000000
-24.7046135  -11.0048692  0.0000000
24.1953506  -30.4418425  0.0000000
21.1061504  -33.3732181  0.0000000
27.2293499  35.3106939  0.0000000
32.2721089  37.7358556  0.0000000
12.6904295  8.3257544  0.0000000
17.1962743  7.5737706  0.0000000
8.5373929  4.0277046  0.0000000
5.4017243  -0.2492804  0.0000000
-11.3433466  -14.3099708  0.0000000
-8.0223294  -18.0014536  0.0000000
-30.3791627  -29.7746996  0.0000000
-31.3857766  -38.8413653  0.0000000
-41.5798409  -0.2641405  0.0000000
-40.0323814  -3.6252428  0.0000000
18.4413132  14.9213567  0.0000000
20.4029070  17.3849673  0.0000000
-21.6382661  -17.2949802  0.0000000
-18.2224124  -19.7878979  0.0000000
29.9079769  -6.0150091  0.0000000
27.8621070  -10.2824390  0.0000000
34.9305925  -18.8934485  0.0000000
38.5796732  -21.6198036  0.0000000
-14.0957276  10.9267437  0.0000000
-20.0813017  12.6013329  0.0000000
-6.9871253  -3.6138709  0.0000000
-4.6519785  -8.4283530  0.0000000
7.4147942  23.9379280  0.0000000
10.5167786  22.5497933  0.0000000
3.9780078  -11.5631183  0.0000000
2.1589595  -9.7917233  0.0000000
-24.1693286  30.9239616  0.0000000
-29.5238086  32.5890253  0.0000000
-8.3819947  -1.6154061  0.0000000
-4.7716275  -0.9637847  0.0000000
-23.8315864  8.8746119  0.0000000
-28.7564680  10.1431147  0.0000000
11.4049705  -2.7949867  0.0000000
14.3283030  -5.2165578  0.0000000
-9.5677709  -17.2967377  0.0000000
-8.6498888  -21.5252321  0.0000000
-21.8213222  22.8888313  0.0000000
-20.4737598  17.6263254  0.0000000
34.2350396  13.3351479  0.0000000
30.8149533  10.5784726  0.0000000
22.5602766  -2.2513282  0.0000000
24.5965967  0.8057905  0.0000000
2.7634634  24.8276448  0.0000000
5.4661835  27.6779845  0.0000000
34.1313015  31.5070869  0.0000000
38.6998027  30.4709277  0.0000000
-11.1475795  33.7158541  0.0000000
-13.9735992  36.8090069  0.0000000
7.4213963  -44.3212450  0.0000000
8.6345574  -48.7294776  0.0000000
-43.3859827  3.3263884  0.0000000
-49.7564124  -0.0729606  0.0000000
-12.1667827  14.7575118  0.0000000
-8.5635220  12.0319160  0.0000000
30.2690214  -17.3177967  0.0000000
29.9466525  -21.0378530  0.0000000
10.3487928  1.8575810  0.0000000
15.1685728  4.6429788  0.0000000
15.2421424  8.7621881  0.0000000
16.9392868  11.2095385  0.0000000
-14.1101301  -41.9872684  0.0000000
-16.1287262  -45.8296845  0.0000000
-16.9637119  -10.4297880  0.0000000
-17.5796379  -14.2066500  0.0000000
-13.3241496  12.4590510  0.0000000
-9.3662889  7.8314823  0.0000000
3.9509157  10.6361970  0.0000000
7.7325160  11.6613150  0.0000000
9.8384333  -28.2654360  0.0000000
6.1362570  -30.2686678  0.0000000
-4.0266918  26.9456165  0.0000000
0.7501253  28.4546033  0.0000000
31.9625226  -8.2995159  0.0000000
35.5069743  -6.9524597  0.0000000
-45.3033526  -1.8323956  0.0000000
-48.9923608  -3.2736779  0.0000000
20.4020170  27.8458919  0.0000000
15.9046590  23.6944220  0.0000000
-12.5923582  -19.8769175  0.0000000
-13.4159285  -25.4855863  0.0000000
-12.3241419  24.5310609  0.0000000
-14.6422646  28.8216544  0.0000000
21.9050527  -26.2532731  0.0000000
25.3932670  -23.9709155  0.0000000
-8.2965879  -12.7580822  0.0000000
-5.7601903  -15.0588078  0.0000000
-39.7317278  19.2760038  0.0000000
-39.4776185  15.6975079  0.0000000
17.7186955  -29.4036329  0.0000000
17.7451907  -33.7260616  0.0000000
21.4503678  4.1985456  0.0000000
21.5478556  8.9944708  0.0000000
-20.8034338  -31.3218082  0.0000000
-14.2027704  -32.0460396  0.0000000
17.3450206  -13.4693193  0.0000000
17.3679004  -15.7476457  0.0000000
45.2927886  4.6304704  0.0000000
47.3378817  2.2924136  0.0000000
-5.8173393  27.3671233  0.0000000
-10.3652247  29.3870790  0.0000000
17.2778953  35.3155855  0.0000000
22.0103443  38.7937611  0.0000000
7.0259878  42.4336932  0.0000000
6.4367740  37.5896684  0.0000000
-15.7799443  43.6287723  0.0000000
-19.1629336  38.4142070  0.0000000
6.8693195  38.6049967  0.0000000
6.9133159  30.9211472  0.0000000
-28.7901006  2.9907072  0.0000000
-28.7426939  6.9739943  0.0000000
-17.6500199  7.2987974  0.0000000
-16.6494069  4.3987759  0.0000000
-15.4133255  33.2823894  0.0000000
-19.5008922  33.8943903  0.0000000
-43.7121319  -12.5427250  0.0000000
-48.0463305  -12.7039778  0.0000000
9.5430551  16.0988897  0.0000000
11.6397748  12.7782746  0.0000000
7.5910835  -42.4588594  0.0000000
4.4124341  -42.3850718  0.0000000
-5.1623825  5.1820080  0.0000000
-4.4389616  1.9153475  0.0000000
0.2294029  18.2444571  0.0000000
5.8598777  20.3024451  0.0000000
-12.8874569  -37.7359214  0.0000000
-16.4635062  -38.3835997  0.0000000
38.7029331  17.1429851  0.0000000
41.2098599  11.4206588  0.0000000
-29.5974614  -24.1430195  0.0000000
-33.9951956  -26.8982211  0.0000000
-11.3952048  16.2898190  0.0000000
-16.9806755  15.2725355  0.0000000
-24.6839292  19.5879009  0.0000000
-28.2929564  19.2082182  0.0000000
0.6135781  -3.7417368  0.0000000
2.7290708  -5.8572338  0.0000000
45.3893645  -7.0986450  0.0000000
48.9491914  -8.4297519  0.0000000
37.6748558  -11.1195864  0.0000000
40.7093768  -8.8531525  0.0000000
-33.8287469  10.1105509  0.0000000
-32.4004284  12.7316890  0.0000000
0.3238415  -1.7910548  0.0000000
-2.7577890  -3.1439628  0.0000000
-40.9335480  9.1599429  0.0000000
-42.4819103  12.9462072  0.0000000
-21.1031130  5.0153809  0.0000000
-19.1209721  -0.0198240  0.0000000
9.9629536  -27.1682302  0.0000000
14.0071885  -29.4341561  0.0000000
19.1875592  -5.6642370  0.0000000
17.7087616  -8.0399994  0.0000000
18.6956533  -39.1049572  0.0000000
20.4971789  -37.1469066  0.0000000
40.3520413  -3.9866039  0.0000000
43.2201462  -0.2802848  0.0000000
24.3830981  -0.0697971  0.0000000
27.2705793  2.5074668  0.0000000
18.0786552  24.4103887  0.0000000
18.5917193  20.7963673  0.0000000
-9.1577430  -37.2300774  0.0000000
-10.6568432  -34.3659789  0.0000000
-13.9145055  24.3985112  0.0000000
-14.5024648  21.5721565  0.0000000
40.6803073  3.8162250  0.0000000
39.7984816  7.3002096  0.0000000
-3.4928864  16.9568695  0.0000000
-5.2078724  13.5501579  0.0000000
-1.9268315  41.9151665  0.0000000
2.0812587  40.4003787  0.0000000
18.7783421  -14.4004107  0.0000000
20.2354507  -17.1396438  0.0000000
-16.4590873  24.1864316  0.0000000
-18.4647652  28.9099837  0.0000000
-19.1652221  -32.0296711  0.0000000
-17.9903571  -34.9311907  0.0000000
3.1613793  12.2503251  0.0000000
1.6143493  9.2895871  0.0000000
-30.3073086  -15.4404386  0.0000000
-33.9218665  -15.8519092  0.0000000
27.1436652  -33.5471629  0.0000000
29.4363613  -33.2603107  0.0000000
0.8919184  -0.0324564  0.0000000
3.6397858  -2.7267534  0.0000000
-33.9791087  4.0726981  0.0000000
-34.6659645  0.6328108  0.0000000
-28.2232066  -5.1317589  0.0000000
-24.6324074  -6.5855482  0.0000000
28.8783564  -9.7235922  0.0000000
28.7362827  -13.3369015  0.0000000
-4.4348335  -44.5046487  0.0000000
-3.8246359  -49.4115421  0.0000000
-41.3509309  19.0150015  0.0000000
-44.2365360  22.1308890  0.0000000
-23.9752332  -23.6221536  0.0000000
-22.7882863  -27.1413591  0.0000000
-32.6613943  19.5987303  0.0000000
-35.5735047  18.0221042  0.0000000
-40.9360030  8.2305692  0.0000000
-44.9757208  9.1302511  0.0000000
10.3215144  -31.7439460  0.0000000
7.0387938  -33.6385359  0.0000000
-8.0600934  -27.1584887  0.0000000
-11.0415073  -29.3271234  0.0000000
0.1762498  -11.9730543  0.0000000
-1.7873445  -10.1248085  0.0000000
36.6425804  -28.2238920  0.0000000
38.8432427  -29.4180647  0.0000000
-13.4392358  4.8373602  0.0000000
-9.1074849  4.7880309  0.0000000
-30.5012847  -16.9476653  0.0000000
-26.9072662  -18.7347342  0.0000000
25.6968977  -3.0101683  0.0000000
29.1404017  7.8098332  0.0000000
31.0754931  19.4186165  0.0000000
30.0812223  14.4955149  0.0000000
1.6216932  34.5619628  0.0000000
3.1695392  35.6154151  0.0000000
18.9966626  -7.2470764  0.0000000
19.7477211  -10.0816190  0.0000000
14.5830778  -20.9305012  0.0000000
17.5900915  -18.9824592  0.0000000
-43.6619120  -14.3227377  0.0000000
-43.2220776  -17.8898111  0.0000000
-19.4962759  12.5238652  0.0000000
-23.1586613  14.0010726  0.0000000
27.1325404  -28.2184948  0.0000000
29.4504596  -24.3934725  0.0000000
24.0287618  5.8122444  0.0000000
25.5476672  8.7689562  0.0000000
11.4806816  -1.1920774  0.0000000
8.5286413  -1.2293319  0.0000000
-25.3741685  -14.4606584  0.0000000
-22.5994654  -13.1268317  0.0000000
3.5722940  -46.4922079  0.0000000
0.9222064  -45.8857431  0.0000000
-26.7154515  16.4894877  0.0000000
-29.1657917  15.5786586  0.0000000
10.8623741  -14.2825034  0.0000000
13.8774733  -16.5037901  0.0000000
-34.8928503  -21.3901433  0.0000000
-34.6766727  -23.9108783  0.0000000
-31.8394279  -9.5313636  0.0000000
-34.1685249  -6.8734558  0.0000000
-29.9898841  26.4424348  0.0000000
-32.3099681  29.2598365  0.0000000
-0.8739633  -37.6883309  0.0000000
-2.3625952  -39.9319190  0.0000000
-25.5791739  -33.4655713  0.0000000
-27.5110001  -35.8117099  0.0000000
-5.8042981  46.8829751  0.0000000
-8.8170190  48.4976512  0.0000000
35.5035378  -10.4710534  0.0000000
35.9124015  -13.5439215  0.0000000

LINES  499  1497
2  0  10
2  10  496
2  496  497
2  496  350
2  350  351
2  350  58
2  58  59
2  58  11
2  10  6
2  6  144
2  144  145
2  144  348
2  348  36
2  36  146
2  146  147
2  146  37
2  36  204
2  204  346
2  346  347
2  346  72
2  72  160
2  160  244
2  244  245
2  244  161
2  160  206
2  206  52
2  52  82
2  82  152
2  152  153
2  152  83
2  82  70
2  70  460
2  460  461
2  460  71
2  70  80
2  80  372
2  372  373
2  372  194
2  194  195
2  194  7
2  80  284
2  284  81
2  284  285
2  52  290
2  290  53
2  290  291
2  206  207
2  72  322
2  322  218
2  218  73
2  218  219
2  322  404
2  404  323
2  404  405
2  204  208
2  208  205
2  208  209
2  348  352
2  352  349
2  352  353
2  6  414
2  414  128
2  128  100
2  100  76
2  76  2
2  2  344
2  344  345
2  344  18
2  18  326
2  326  327
2  326  408
2  408  418
2  418  419
2  418  94
2  94  190
2  190  272
2  272  273
2  272  191
2  190  95
2  94  282
2  282  56
2  56  378
2  378  379
2  378  482
2  482  57
2  482  483
2  56  38
2  38  168
2  168  442
2  442  443
2  442  169
2  168  90
2  90  222
2  222  223
2  222  91
2  90  232
2  232  332
2  332  333
2  332  438
2  438  98
2  98  39
2  98  99
2  438  439
2  232  233
2  38  490
2  490  19
2  490  491
2  282  283
2  408  409
2  18  162
2  162  376
2  376  377
2  376  298
2  298  299
2  298  310
2  310  264
2  264  470
2  470  471
2  470  265
2  264  14
2  14  454
2  454  455
2  454  140
2  140  166
2  166  274
2  274  275
2  274  266
2  266  267
2  266  167
2  166  141
2  140  186
2  186  42
2  42  62
2  62  308
2  308  309
2  308  63
2  62  192
2  192  250
2  250  280
2  280  281
2  280  251
2  250  324
2  324  43
2  324  325
2  192  330
2  330  193
2  330  331
2  42  15
2  186  187
2  14  356
2  356  172
2  172  392
2  392  393
2  392  154
2  154  4
2  4  130
2  130  131
2  130  432
2  432  240
2  240  22
2  22  488
2  488  489
2  488  132
2  132  133
2  132  78
2  78  79
2  78  360
2  360  468
2  468  469
2  468  23
2  360  361
2  22  170
2  170  424
2  424  425
2  424  456
2  456  44
2  44  120
2  120  440
2  440  441
2  440  134
2  134  135
2  134  121
2  120  374
2  374  20
2  20  46
2  46  338
2  338  420
2  420  421
2  420  339
2  338  47
2  46  494
2  494  238
2  238  86
2  86  21
2  86  87
2  238  239
2  494  495
2  20  108
2  108  5
2  108  252
2  252  174
2  174  109
2  174  175
2  252  253
2  374  375
2  44  486
2  486  106
2  106  45
2  106  107
2  486  487
2  456  457
2  170  478
2  478  258
2  258  171
2  258  259
2  478  479
2  240  241
2  432  433
2  4  354
2  354  96
2  96  430
2  430  431
2  430  212
2  212  444
2  444  445
2  444  390
2  390  391
2  390  213
2  212  164
2  164  254
2  254  255
2  254  320
2  320  165
2  320  321
2  164  296
2  296  188
2  188  3
2  188  189
2  296  297
2  96  156
2  156  97
2  156  386
2  386  157
2  386  387
2  354  355
2  154  155
2  172  276
2  276  173
2  276  277
2  356  357
2  310  311
2  162  163
2  2  316
2  316  54
2  54  216
2  216  412
2  412  413
2  412  217
2  216  368
2  368  32
2  32  64
2  64  178
2  178  179
2  178  200
2  200  65
2  200  366
2  366  201
2  366  367
2  64  422
2  422  312
2  312  30
2  30  114
2  114  246
2  246  304
2  304  305
2  304  247
2  246  115
2  114  248
2  248  302
2  302  303
2  302  8
2  8  476
2  476  477
2  476  278
2  278  279
2  278  142
2  142  143
2  142  66
2  66  340
2  340  341
2  340  416
2  416  67
2  416  417
2  66  34
2  34  270
2  270  271
2  270  450
2  450  35
2  450  451
2  34  484
2  484  122
2  122  16
2  16  466
2  466  467
2  466  112
2  112  113
2  112  84
2  84  334
2  334  335
2  334  85
2  84  328
2  328  150
2  150  472
2  472  473
2  472  40
2  40  452
2  452  453
2  452  41
2  40  234
2  234  17
2  234  235
2  150  242
2  242  220
2  220  151
2  220  426
2  426  221
2  426  427
2  242  243
2  328  329
2  16  26
2  26  12
2  12  394
2  394  395
2  394  314
2  314  315
2  314  446
2  446  24
2  24  104
2  104  398
2  398  399
2  398  105
2  104  25
2  24  228
2  228  180
2  180  364
2  364  365
2  364  294
2  294  295
2  294  480
2  480  13
2  480  481
2  180  181
2  228  229
2  446  447
2  12  1
2  26  74
2  74  136
2  136  448
2  448  449
2  448  137
2  136  184
2  184  50
2  50  27
2  50  196
2  196  138
2  138  158
2  158  436
2  436  437
2  436  159
2  158  92
2  92  51
2  92  93
2  138  406
2  406  224
2  224  370
2  370  371
2  370  139
2  224  306
2  306  225
2  306  307
2  406  407
2  196  492
2  492  197
2  492  493
2  184  185
2  74  75
2  122  226
2  226  123
2  226  227
2  484  485
2  8  124
2  124  236
2  236  396
2  396  464
2  464  465
2  464  397
2  396  237
2  236  286
2  286  118
2  118  458
2  458  459
2  458  28
2  28  260
2  260  434
2  434  435
2  434  261
2  260  318
2  318  60
2  60  214
2  214  300
2  300  301
2  300  215
2  214  182
2  182  262
2  262  263
2  262  183
2  182  61
2  60  498
2  498  384
2  384  88
2  88  9
2  88  116
2  116  89
2  116  117
2  384  385
2  498  499
2  318  319
2  28  230
2  230  110
2  110  198
2  198  199
2  198  68
2  68  29
2  68  410
2  410  176
2  176  342
2  342  343
2  342  69
2  176  177
2  410  411
2  110  148
2  148  111
2  148  400
2  400  202
2  202  210
2  210  211
2  210  149
2  202  382
2  382  203
2  382  383
2  400  401
2  230  231
2  118  119
2  286  402
2  402  287
2  402  403
2  124  126
2  126  125
2  126  336
2  336  474
2  474  475
2  474  127
2  336  337
2  248  249
2  30  102
2  102  31
2  102  428
2  428  388
2  388  380
2  380  103
2  380  381
2  388  389
2  428  429
2  312  313
2  422  423
2  32  362
2  362  48
2  48  33
2  48  256
2  256  49
2  256  257
2  362  363
2  368  369
2  54  288
2  288  268
2  268  55
2  268  269
2  288  289
2  316  317
2  76  292
2  292  358
2  358  359
2  358  77
2  292  293
2  100  462
2  462  101
2  462  463
2  128  129
2  414  415

CELL_DATA  499
scalars raio float
LOOKUP_TABLE default
1.2186604
0.2822404
0.1287000
0.2730224
0.1739213
0.2471164
0.2268022
0.1507226
1.2135931
0.5534506
0.1476871
0.5499227
0.5420539
0.2110649
0.1554322
0.1780814
0.5311698
0.5210622
0.1560308
0.5163561
0.4837843
0.2210066
0.1914415
0.1557544
0.4678940
0.4603936
0.4422380
0.2580291
0.2383358
0.1538402
0.4107721
0.2460629
0.2269670
0.1474590
0.3789369
0.3180714
0.2339108
0.2686113
0.2533906
0.1459894
0.2811924
0.2018742
0.2410522
0.2230408
0.1583089
0.1924535
0.1692411
0.2902191
0.2351878
0.1506731
0.2124459
0.2252938
0.1678269
0.1885983
0.2032277
0.1503043
0.1709751
0.1916318
0.1100068
0.1786943
1.1739438
1.1734162
1.1725737
1.1710687
1.1678055
0.8796580
0.1389686
0.8785004
0.5061628
0.1443825
0.5022161
0.4994224
0.1507348
0.4948028
0.2552725
0.2406221
0.2023067
0.1781264
0.1392957
0.4710312
0.4647629
0.2500868
0.1610282
0.2254940
0.1786814
0.1792670
0.4392509
0.4216573
0.2314428
0.1893922
0.1776233
0.3970007
0.2511654
0.2112571
0.1858204
0.3601814
0.3401140
0.1951622
0.3171827
0.2800724
0.1688810
0.2578943
0.2150197
0.1947205
0.2138601
0.1198852
0.2004829
0.1602722
0.1281015
0.8184836
0.8169153
0.1494947
0.8152431
0.1420543
0.8138028
0.8119428
0.1995533
0.1857281
0.1154759
0.8079048
0.4676535
0.1494434
0.4625101
0.2742471
0.2651632
0.1732667
0.2377706
0.2141224
0.1536180
0.1256234
0.4278341
0.4194373
0.4136197
0.2477021
0.1997435
0.1933553
0.3815919
0.3467345
0.2652045
0.2318876
0.1835481
0.2845241
0.1657324
0.2643887
0.2403145
0.1331677
0.2258282
0.1446724
0.1653528
0.7518780
0.7504654
0.7447563
0.1568311
0.7424308
0.7389516
0.6696183
0.1761427
0.6655306
0.6627714
0.6589725
0.3723257
0.1591241
0.3623739
0.1924618
0.3432898
0.2192591
0.3104302
0.2650672
0.2454197
0.1566213
0.2243448
0.6166987
0.5956239
0.1624347
0.5915695
0.5869844
0.5573369
0.3129861
0.2026270
0.2816435
0.2601480
0.1679191
0.5222759
0.5135107
0.4548608
0.3371536
0.3198088
0.2384425
0.2675531
0.1777478
0.3820956
0.3642497
0.3340580
0.2342849
0.2901202
0.2227262
0.1953683
0.3456588
0.1443742
0.3370506
0.2867353
0.2310170
0.2240400
0.2450517
0.1917748
0.3076670
0.2895755
0.2192871
0.2394969
0.1691697
0.1684099
0.2853438
0.2623026
0.1763859
0.2324465
0.1730909
0.1707403
0.1539869
0.4691413
0.4635875
0.4337520
0.1579454
0.4266555
0.2850927
0.2080173
0.2419890
0.2225244
0.1466176
0.3791265
0.2966065
0.1931728
0.2663040
0.1542785
0.2477862
0.3050995
0.2523956
0.1511372
0.2328575
0.2309720
0.2621942
0.1431703
0.2471140
0.2048531
0.1865631
0.1535984
0.1789060
0.2123317
0.1442758
0.1872907
0.1337229
0.1544879
0.1465247
0.9697402
0.9687820
0.9638135
0.1865724
0.1636400
0.1283112
0.9614775
0.9602733
0.9511534
0.2657850
0.1574094
0.2459356
0.1315491
0.2326891
0.1635432
0.2018543
0.9441847
0.9433326
0.9423550
0.9323639
0.2399612
0.2269664
0.1858845
0.1740109
0.1285725
0.9270352
0.9256654
0.1554960
0.9242005
0.7939313
0.1343480
0.7926469
0.1439418
0.7910615
0.1564265
0.7890173
0.2668039
0.1613225
0.2454862
0.2002009
0.1891720
0.7787143
0.2710393
0.1604686
0.2508190
0.2037451
0.1941753
0.7676116
0.7656794
0.7587540
0.5087457
0.1576622
0.5036475
0.1980805
0.4932201
0.2434809
0.2285906
0.1355317
0.4725909
0.4637268
0.3960011
0.1994831
0.3783528
0.3101148
0.2359819
0.2555192
0.2897954
0.2097677
0.2472069
0.3350771
0.3091470
0.1569414
0.2950300
0.2579606
0.2041992
0.2006278
0.1799638
0.6732388
0.5005935
0.4955518
0.1727478
0.4884532
0.1704048
0.4814398
0.4740182
0.3358858
0.2911883
0.2071095
0.2509627
0.2363591
0.4093909
0.3968648
0.3722768
0.1990838
0.3522395
0.2291025
0.3164123
0.2586487
0.2431461
0.2218100
0.1827901
0.1719216
0.1553926
0.5643079
0.5555217
0.2765757
0.2355818
0.2006803
0.5316597
0.5236060
0.2063390
0.5126993
0.4881391
0.3757229
0.3108227
0.2656265
0.2243149
0.2844326
0.1695305
0.2627457
0.3984811
0.3809118
0.2864716
0.2417931
0.2108462
0.3166791
0.2011779
0.2869040
0.2000480
0.2642631
0.2148676
0.2043608
0.1887688
0.2021736
0.2293910
0.1250018
0.2162833
0.1504719
0.6611232
0.6434203
0.2383449
0.2186800
0.1866345
0.1581633
0.1455348
0.6323281
0.6255888
0.6213447
0.2042464
0.6138993
0.4811176
0.2243151
0.1992812
0.1499683
0.4642817
0.4566410
0.3662029
0.2710465
0.2261028
0.2029062
0.3079248
0.2946826
0.2417886
0.2254179
0.1533630
0.3585895
0.3445956
0.3235752
0.1483263
0.3128333
0.2426415
0.2537040
0.1916637
0.1731408
0.1693884
0.4932360
0.4847440
0.3864486
0.1941781
0.3693627
0.1395781
0.3625955
0.3423661
0.2839011
0.2266803
0.2239683
0.2583721
0.1961092
0.3830193
0.1590105
0.3736571
0.3536235
0.2841895
0.2559871
0.1834867
0.2770623
0.1954386
0.2398799
0.1995775
0.1826336
0.1704166
0.1999838
0.1261586
0.1816122
0.2827156
0.1414210
0.2703904
0.2374612
0.1984830
0.1772694
0.1854562
0.1522115
0.2975209
0.1397843
0.2868580
0.2659757
0.2383164
0.1910797
0.1871838
0.1741409
0.1685563
0.1376328
0.1315553
0.2923633
0.2776560
0.1611967
0.2582160
0.2249464
0.1800227
0.1530466
0.1494096
0.2405409
0.2198912
0.1780811
0.1708235
0.1486617
0.1392564
0.2374509
0.2132445
0.1896164
0.1422654
0.1545464
0.1837068
0.1529833
0.1378475
0.1515097
0.1296711
