# vtk DataFile Version 3.0
Monodomain MVF
ASCII
DATASET POLYDATA
POINTS 501 float
0.000000e+00 0.000000e+00 0.000000e+00
1.000000e-02 0.000000e+00 0.000000e+00
2.000000e-02 0.000000e+00 0.000000e+00
3.000000e-02 0.000000e+00 0.000000e+00
4.000000e-02 0.000000e+00 0.000000e+00
5.000000e-02 0.000000e+00 0.000000e+00
6.000000e-02 0.000000e+00 0.000000e+00
7.000000e-02 0.000000e+00 0.000000e+00
8.000000e-02 0.000000e+00 0.000000e+00
9.000000e-02 0.000000e+00 0.000000e+00
1.000000e-01 0.000000e+00 0.000000e+00
1.100000e-01 0.000000e+00 0.000000e+00
1.200000e-01 0.000000e+00 0.000000e+00
1.300000e-01 0.000000e+00 0.000000e+00
1.400000e-01 0.000000e+00 0.000000e+00
1.500000e-01 0.000000e+00 0.000000e+00
1.600000e-01 0.000000e+00 0.000000e+00
1.700000e-01 0.000000e+00 0.000000e+00
1.800000e-01 0.000000e+00 0.000000e+00
1.900000e-01 0.000000e+00 0.000000e+00
2.000000e-01 0.000000e+00 0.000000e+00
2.100000e-01 0.000000e+00 0.000000e+00
2.200000e-01 0.000000e+00 0.000000e+00
2.300000e-01 0.000000e+00 0.000000e+00
2.400000e-01 0.000000e+00 0.000000e+00
2.500000e-01 0.000000e+00 0.000000e+00
2.600000e-01 0.000000e+00 0.000000e+00
2.700000e-01 0.000000e+00 0.000000e+00
2.800000e-01 0.000000e+00 0.000000e+00
2.900000e-01 0.000000e+00 0.000000e+00
3.000000e-01 0.000000e+00 0.000000e+00
3.100000e-01 0.000000e+00 0.000000e+00
3.200000e-01 0.000000e+00 0.000000e+00
3.300000e-01 0.000000e+00 0.000000e+00
3.400000e-01 0.000000e+00 0.000000e+00
3.500000e-01 0.000000e+00 0.000000e+00
3.600000e-01 0.000000e+00 0.000000e+00
3.700000e-01 0.000000e+00 0.000000e+00
3.800000e-01 0.000000e+00 0.000000e+00
3.900000e-01 0.000000e+00 0.000000e+00
4.000000e-01 0.000000e+00 0.000000e+00
4.100000e-01 0.000000e+00 0.000000e+00
4.200000e-01 0.000000e+00 0.000000e+00
4.300000e-01 0.000000e+00 0.000000e+00
4.400000e-01 0.000000e+00 0.000000e+00
4.500000e-01 0.000000e+00 0.000000e+00
4.600000e-01 0.000000e+00 0.000000e+00
4.700000e-01 0.000000e+00 0.000000e+00
4.800000e-01 0.000000e+00 0.000000e+00
4.900000e-01 0.000000e+00 0.000000e+00
5.000000e-01 0.000000e+00 0.000000e+00
5.100000e-01 0.000000e+00 0.000000e+00
5.200000e-01 0.000000e+00 0.000000e+00
5.300000e-01 0.000000e+00 0.000000e+00
5.400000e-01 0.000000e+00 0.000000e+00
5.500000e-01 0.000000e+00 0.000000e+00
5.600000e-01 0.000000e+00 0.000000e+00
5.700000e-01 0.000000e+00 0.000000e+00
5.800000e-01 0.000000e+00 0.000000e+00
5.900000e-01 0.000000e+00 0.000000e+00
6.000000e-01 0.000000e+00 0.000000e+00
6.100000e-01 0.000000e+00 0.000000e+00
6.200000e-01 0.000000e+00 0.000000e+00
6.300000e-01 0.000000e+00 0.000000e+00
6.400000e-01 0.000000e+00 0.000000e+00
6.500000e-01 0.000000e+00 0.000000e+00
6.600000e-01 0.000000e+00 0.000000e+00
6.700000e-01 0.000000e+00 0.000000e+00
6.800000e-01 0.000000e+00 0.000000e+00
6.900000e-01 0.000000e+00 0.000000e+00
7.000000e-01 0.000000e+00 0.000000e+00
7.100000e-01 0.000000e+00 0.000000e+00
7.200000e-01 0.000000e+00 0.000000e+00
7.300000e-01 0.000000e+00 0.000000e+00
7.400000e-01 0.000000e+00 0.000000e+00
7.500000e-01 0.000000e+00 0.000000e+00
7.600000e-01 0.000000e+00 0.000000e+00
7.700000e-01 0.000000e+00 0.000000e+00
7.800000e-01 0.000000e+00 0.000000e+00
7.900000e-01 0.000000e+00 0.000000e+00
8.000000e-01 0.000000e+00 0.000000e+00
8.100000e-01 0.000000e+00 0.000000e+00
8.200000e-01 0.000000e+00 0.000000e+00
8.300000e-01 0.000000e+00 0.000000e+00
8.400000e-01 0.000000e+00 0.000000e+00
8.500000e-01 0.000000e+00 0.000000e+00
8.600000e-01 0.000000e+00 0.000000e+00
8.700000e-01 0.000000e+00 0.000000e+00
8.800000e-01 0.000000e+00 0.000000e+00
8.900000e-01 0.000000e+00 0.000000e+00
9.000000e-01 0.000000e+00 0.000000e+00
9.100000e-01 0.000000e+00 0.000000e+00
9.200000e-01 0.000000e+00 0.000000e+00
9.300000e-01 0.000000e+00 0.000000e+00
9.400000e-01 0.000000e+00 0.000000e+00
9.500000e-01 0.000000e+00 0.000000e+00
9.600000e-01 0.000000e+00 0.000000e+00
9.700000e-01 0.000000e+00 0.000000e+00
9.800000e-01 0.000000e+00 0.000000e+00
9.900000e-01 0.000000e+00 0.000000e+00
1.000000e+00 0.000000e+00 0.000000e+00
1.010000e+00 0.000000e+00 0.000000e+00
1.020000e+00 0.000000e+00 0.000000e+00
1.030000e+00 0.000000e+00 0.000000e+00
1.040000e+00 0.000000e+00 0.000000e+00
1.050000e+00 0.000000e+00 0.000000e+00
1.060000e+00 0.000000e+00 0.000000e+00
1.070000e+00 0.000000e+00 0.000000e+00
1.080000e+00 0.000000e+00 0.000000e+00
1.090000e+00 0.000000e+00 0.000000e+00
1.100000e+00 0.000000e+00 0.000000e+00
1.110000e+00 0.000000e+00 0.000000e+00
1.120000e+00 0.000000e+00 0.000000e+00
1.130000e+00 0.000000e+00 0.000000e+00
1.140000e+00 0.000000e+00 0.000000e+00
1.150000e+00 0.000000e+00 0.000000e+00
1.160000e+00 0.000000e+00 0.000000e+00
1.170000e+00 0.000000e+00 0.000000e+00
1.180000e+00 0.000000e+00 0.000000e+00
1.190000e+00 0.000000e+00 0.000000e+00
1.200000e+00 0.000000e+00 0.000000e+00
1.210000e+00 0.000000e+00 0.000000e+00
1.220000e+00 0.000000e+00 0.000000e+00
1.230000e+00 0.000000e+00 0.000000e+00
1.240000e+00 0.000000e+00 0.000000e+00
1.250000e+00 0.000000e+00 0.000000e+00
1.260000e+00 0.000000e+00 0.000000e+00
1.270000e+00 0.000000e+00 0.000000e+00
1.280000e+00 0.000000e+00 0.000000e+00
1.290000e+00 0.000000e+00 0.000000e+00
1.300000e+00 0.000000e+00 0.000000e+00
1.310000e+00 0.000000e+00 0.000000e+00
1.320000e+00 0.000000e+00 0.000000e+00
1.330000e+00 0.000000e+00 0.000000e+00
1.340000e+00 0.000000e+00 0.000000e+00
1.350000e+00 0.000000e+00 0.000000e+00
1.360000e+00 0.000000e+00 0.000000e+00
1.370000e+00 0.000000e+00 0.000000e+00
1.380000e+00 0.000000e+00 0.000000e+00
1.390000e+00 0.000000e+00 0.000000e+00
1.400000e+00 0.000000e+00 0.000000e+00
1.410000e+00 0.000000e+00 0.000000e+00
1.420000e+00 0.000000e+00 0.000000e+00
1.430000e+00 0.000000e+00 0.000000e+00
1.440000e+00 0.000000e+00 0.000000e+00
1.450000e+00 0.000000e+00 0.000000e+00
1.460000e+00 0.000000e+00 0.000000e+00
1.470000e+00 0.000000e+00 0.000000e+00
1.480000e+00 0.000000e+00 0.000000e+00
1.490000e+00 0.000000e+00 0.000000e+00
1.500000e+00 0.000000e+00 0.000000e+00
1.510000e+00 0.000000e+00 0.000000e+00
1.520000e+00 0.000000e+00 0.000000e+00
1.530000e+00 0.000000e+00 0.000000e+00
1.540000e+00 0.000000e+00 0.000000e+00
1.550000e+00 0.000000e+00 0.000000e+00
1.560000e+00 0.000000e+00 0.000000e+00
1.570000e+00 0.000000e+00 0.000000e+00
1.580000e+00 0.000000e+00 0.000000e+00
1.590000e+00 0.000000e+00 0.000000e+00
1.600000e+00 0.000000e+00 0.000000e+00
1.610000e+00 0.000000e+00 0.000000e+00
1.620000e+00 0.000000e+00 0.000000e+00
1.630000e+00 0.000000e+00 0.000000e+00
1.640000e+00 0.000000e+00 0.000000e+00
1.650000e+00 0.000000e+00 0.000000e+00
1.660000e+00 0.000000e+00 0.000000e+00
1.670000e+00 0.000000e+00 0.000000e+00
1.680000e+00 0.000000e+00 0.000000e+00
1.690000e+00 0.000000e+00 0.000000e+00
1.700000e+00 0.000000e+00 0.000000e+00
1.710000e+00 0.000000e+00 0.000000e+00
1.720000e+00 0.000000e+00 0.000000e+00
1.730000e+00 0.000000e+00 0.000000e+00
1.740000e+00 0.000000e+00 0.000000e+00
1.750000e+00 0.000000e+00 0.000000e+00
1.760000e+00 0.000000e+00 0.000000e+00
1.770000e+00 0.000000e+00 0.000000e+00
1.780000e+00 0.000000e+00 0.000000e+00
1.790000e+00 0.000000e+00 0.000000e+00
1.800000e+00 0.000000e+00 0.000000e+00
1.810000e+00 0.000000e+00 0.000000e+00
1.820000e+00 0.000000e+00 0.000000e+00
1.830000e+00 0.000000e+00 0.000000e+00
1.840000e+00 0.000000e+00 0.000000e+00
1.850000e+00 0.000000e+00 0.000000e+00
1.860000e+00 0.000000e+00 0.000000e+00
1.870000e+00 0.000000e+00 0.000000e+00
1.880000e+00 0.000000e+00 0.000000e+00
1.890000e+00 0.000000e+00 0.000000e+00
1.900000e+00 0.000000e+00 0.000000e+00
1.910000e+00 0.000000e+00 0.000000e+00
1.920000e+00 0.000000e+00 0.000000e+00
1.930000e+00 0.000000e+00 0.000000e+00
1.940000e+00 0.000000e+00 0.000000e+00
1.950000e+00 0.000000e+00 0.000000e+00
1.960000e+00 0.000000e+00 0.000000e+00
1.970000e+00 0.000000e+00 0.000000e+00
1.980000e+00 0.000000e+00 0.000000e+00
1.990000e+00 0.000000e+00 0.000000e+00
2.000000e+00 0.000000e+00 0.000000e+00
2.010000e+00 0.000000e+00 0.000000e+00
2.020000e+00 0.000000e+00 0.000000e+00
2.030000e+00 0.000000e+00 0.000000e+00
2.040000e+00 0.000000e+00 0.000000e+00
2.050000e+00 0.000000e+00 0.000000e+00
2.060000e+00 0.000000e+00 0.000000e+00
2.070000e+00 0.000000e+00 0.000000e+00
2.080000e+00 0.000000e+00 0.000000e+00
2.090000e+00 0.000000e+00 0.000000e+00
2.100000e+00 0.000000e+00 0.000000e+00
2.110000e+00 0.000000e+00 0.000000e+00
2.120000e+00 0.000000e+00 0.000000e+00
2.130000e+00 0.000000e+00 0.000000e+00
2.140000e+00 0.000000e+00 0.000000e+00
2.150000e+00 0.000000e+00 0.000000e+00
2.160000e+00 0.000000e+00 0.000000e+00
2.170000e+00 0.000000e+00 0.000000e+00
2.180000e+00 0.000000e+00 0.000000e+00
2.190000e+00 0.000000e+00 0.000000e+00
2.200000e+00 0.000000e+00 0.000000e+00
2.210000e+00 0.000000e+00 0.000000e+00
2.220000e+00 0.000000e+00 0.000000e+00
2.230000e+00 0.000000e+00 0.000000e+00
2.240000e+00 0.000000e+00 0.000000e+00
2.250000e+00 0.000000e+00 0.000000e+00
2.260000e+00 0.000000e+00 0.000000e+00
2.270000e+00 0.000000e+00 0.000000e+00
2.280000e+00 0.000000e+00 0.000000e+00
2.290000e+00 0.000000e+00 0.000000e+00
2.300000e+00 0.000000e+00 0.000000e+00
2.310000e+00 0.000000e+00 0.000000e+00
2.320000e+00 0.000000e+00 0.000000e+00
2.330000e+00 0.000000e+00 0.000000e+00
2.340000e+00 0.000000e+00 0.000000e+00
2.350000e+00 0.000000e+00 0.000000e+00
2.360000e+00 0.000000e+00 0.000000e+00
2.370000e+00 0.000000e+00 0.000000e+00
2.380000e+00 0.000000e+00 0.000000e+00
2.390000e+00 0.000000e+00 0.000000e+00
2.400000e+00 0.000000e+00 0.000000e+00
2.410000e+00 0.000000e+00 0.000000e+00
2.420000e+00 0.000000e+00 0.000000e+00
2.430000e+00 0.000000e+00 0.000000e+00
2.440000e+00 0.000000e+00 0.000000e+00
2.450000e+00 0.000000e+00 0.000000e+00
2.460000e+00 0.000000e+00 0.000000e+00
2.470000e+00 0.000000e+00 0.000000e+00
2.480000e+00 0.000000e+00 0.000000e+00
2.490000e+00 0.000000e+00 0.000000e+00
2.500000e+00 0.000000e+00 0.000000e+00
2.510000e+00 0.000000e+00 0.000000e+00
2.520000e+00 0.000000e+00 0.000000e+00
2.530000e+00 0.000000e+00 0.000000e+00
[...]
POINT_DATA 501
SCALARS vm float 1
LOOKUP_TABLE default
-3.444106e+00
-3.443826e+00
-3.443268e+00
-3.442439e+00
-3.441350e+00
-3.439987e+00
-3.438429e+00
-3.436683e+00
-3.434750e+00
-3.432634e+00
-3.430354e+00
-3.427911e+00
-3.425311e+00
-3.422567e+00
-3.419682e+00
-3.416659e+00
-3.413511e+00
-3.410238e+00
-3.406846e+00
-3.403345e+00
-3.399734e+00
-3.396019e+00
-3.392211e+00
-3.388307e+00
-3.384311e+00
-3.380236e+00
-3.376076e+00
-3.371838e+00
-3.367530e+00
-3.363149e+00
-3.358700e+00
-3.354191e+00
-3.349617e+00
-3.344989e+00
-3.340304e+00
-3.335563e+00
-3.330778e+00
-3.325942e+00
-3.321058e+00
-3.316137e+00
-3.311170e+00
-3.306164e+00
-3.301125e+00
-3.296046e+00
-3.290939e+00
-3.285796e+00
-3.280621e+00
-3.275423e+00
-3.270193e+00
-3.264936e+00
-3.259660e+00
-3.254356e+00
-3.249033e+00
-3.243688e+00
-3.238321e+00
-3.232941e+00
-3.227538e+00
-3.222117e+00
-3.216686e+00
-3.211236e+00
-3.205772e+00
-3.200298e+00
-3.194807e+00
-3.189309e+00
-3.183796e+00
-3.178271e+00
-3.172742e+00
-3.167199e+00
-3.161647e+00
-3.156092e+00
-3.150524e+00
-3.144952e+00
-3.139372e+00
-3.133784e+00
-3.128195e+00
-3.122597e+00
-3.116992e+00
-3.111388e+00
-3.105775e+00
-3.100159e+00
-3.094542e+00
-3.088917e+00
-3.083295e+00
-3.077665e+00
-3.072031e+00
-3.066401e+00
-3.060764e+00
-3.055125e+00
-3.049488e+00
-3.043845e+00
-3.038205e+00
-3.032561e+00
-3.026914e+00
-3.021272e+00
-3.015624e+00
-3.009975e+00
-3.004331e+00
-2.998681e+00
-2.993035e+00
-2.987386e+00
-2.981736e+00
-2.976091e+00
-2.970441e+00
-2.964791e+00
-2.959146e+00
-2.953497e+00
-2.947849e+00
-2.942204e+00
-2.936556e+00
-2.930913e+00
-2.925267e+00
-2.919620e+00
-2.913980e+00
-2.908335e+00
-2.902692e+00
-2.897053e+00
-2.891410e+00
-2.885772e+00
-2.880133e+00
-2.874492e+00
-2.868858e+00
-2.863220e+00
-2.857582e+00
-2.851951e+00
-2.846315e+00
-2.840684e+00
-2.835052e+00
-2.829419e+00
-2.823792e+00
-2.818162e+00
-2.812531e+00
-2.806907e+00
-2.801279e+00
-2.795653e+00
-2.790031e+00
-2.784405e+00
-2.778786e+00
-2.773163e+00
-2.767540e+00
-2.761923e+00
-2.756303e+00
-2.750683e+00
-2.745069e+00
-2.739450e+00
-2.733837e+00
-2.728222e+00
-2.722605e+00
-2.716995e+00
-2.711382e+00
-2.705768e+00
-2.700160e+00
-2.694548e+00
-2.688940e+00
-2.683331e+00
-2.677721e+00
-2.672117e+00
-2.666509e+00
-2.660900e+00
-2.655298e+00
-2.649692e+00
-2.644086e+00
-2.638485e+00
-2.632880e+00
-2.627280e+00
-2.621677e+00
-2.616073e+00
-2.610476e+00
-2.604874e+00
-2.599272e+00
-2.593675e+00
-2.588074e+00
-2.582478e+00
-2.576879e+00
-2.571278e+00
-2.565684e+00
-2.560086e+00
-2.554487e+00
-2.548893e+00
-2.543295e+00
-2.537701e+00
-2.532106e+00
-2.526508e+00
-2.520916e+00
-2.515320e+00
-2.509723e+00
-2.504132e+00
-2.498536e+00
-2.492941e+00
-2.487350e+00
-2.481753e+00
-2.476163e+00
-2.470569e+00
-2.464973e+00
-2.459383e+00
-2.453789e+00
-2.448194e+00
-2.442604e+00
-2.437009e+00
-2.431419e+00
-2.425826e+00
-2.420230e+00
-2.414641e+00
-2.409048e+00
-2.403453e+00
-2.397863e+00
-2.392268e+00
-2.386677e+00
-2.381085e+00
-2.375489e+00
-2.369899e+00
-2.364306e+00
-2.358710e+00
-2.353120e+00
-2.347525e+00
-2.341931e+00
-2.336340e+00
-2.330744e+00
-2.325153e+00
-2.319559e+00
-2.313962e+00
-2.308371e+00
-2.302775e+00
-2.297179e+00
-2.291587e+00
-2.285990e+00
-2.280397e+00
-2.274802e+00
-2.269203e+00
-2.263611e+00
-2.258014e+00
-2.252415e+00
-2.246822e+00
-2.241224e+00
-2.235628e+00
-2.230032e+00
-2.224431e+00
-2.218837e+00
-2.213238e+00
-2.207637e+00
-2.202042e+00
-2.196442e+00
-2.190841e+00
-2.185245e+00
-2.179643e+00
-2.174046e+00
-2.168445e+00
-2.162841e+00
-2.157244e+00
-2.151642e+00
-2.146038e+00
-2.140440e+00
-2.134835e+00
-2.129235e+00
-2.123633e+00
-2.118026e+00
-2.112427e+00
-2.106822e+00
-2.101215e+00
-2.095614e+00
-2.090008e+00
-2.084403e+00
-2.078799e+00
-2.073191e+00
-2.067588e+00
-2.061981e+00
-2.056372e+00
-2.050768e+00
-2.045159e+00
-2.039550e+00
-2.033945e+00
-2.028335e+00
-2.022729e+00
-2.017120e+00
-2.011507e+00
-2.005902e+00
-2.000291e+00
-1.994678e+00
-1.989071e+00
-1.983458e+00
-1.977849e+00
-1.972238e+00
-1.966623e+00
-1.961015e+00
-1.955402e+00
-1.949787e+00
-1.944178e+00
-1.938563e+00
-1.932949e+00
-1.927338e+00
-1.921722e+00
-1.916111e+00
-1.910496e+00
-1.904879e+00
-1.899268e+00
-1.893652e+00
-1.888035e+00
-1.882423e+00
-1.876805e+00
-1.871193e+00
-1.865577e+00
-1.859958e+00
-1.854346e+00
-1.848729e+00
-1.843111e+00
-1.837498e+00
-1.831879e+00
-1.826265e+00
-1.820649e+00
-1.815030e+00
-1.809417e+00
-1.803800e+00
-1.798181e+00
-1.792569e+00
-1.786951e+00
-1.781334e+00
-1.775721e+00
-1.770102e+00
-1.764490e+00
-1.758874e+00
-1.753256e+00
-1.747645e+00
-1.742028e+00
-1.736413e+00
-1.730802e+00
-1.725185e+00
-1.719575e+00
-1.713962e+00
-1.708346e+00
-1.702738e+00
-1.697125e+00
-1.691512e+00
-1.685905e+00
-1.680293e+00
-1.674685e+00
-1.669077e+00
-1.663466e+00
-1.657863e+00
-1.652256e+00
-1.646648e+00
-1.641047e+00
-1.635442e+00
-1.629839e+00
-1.624240e+00
-1.618637e+00
-1.613041e+00
-1.607443e+00
-1.601843e+00
-1.596252e+00
-1.590657e+00
-1.585063e+00
-1.579475e+00
-1.573883e+00
-1.568299e+00
-1.562713e+00
-1.557126e+00
-1.551548e+00
-1.545966e+00
-1.540386e+00
-1.534814e+00
-1.529238e+00
-1.523669e+00
-1.518100e+00
-1.512531e+00
-1.506971e+00
-1.501409e+00
-1.495848e+00
-1.490296e+00
-1.484742e+00
-1.479192e+00
-1.473649e+00
-1.468104e+00
-1.462568e+00
-1.457032e+00
-1.451497e+00
-1.445974e+00
-1.440448e+00
-1.434927e+00
-1.429415e+00
-1.423902e+00
-1.418398e+00
-1.412897e+00
-1.407397e+00
-1.401909e+00
-1.396422e+00
-1.390939e+00
-1.385467e+00
-1.379995e+00
-1.374534e+00
-1.369078e+00
-1.363623e+00
-1.358183e+00
-1.352745e+00
-1.347312e+00
-1.341893e+00
-1.336475e+00
-1.331067e+00
-1.325670e+00
-1.320276e+00
-1.314896e+00
-1.309522e+00
-1.304153e+00
-1.298802e+00
-1.293454e+00
-1.288116e+00
-1.282794e+00
-1.277476e+00
-1.272174e+00
-1.266881e+00
-1.261596e+00
-1.256330e+00
-1.251072e+00
-1.245825e+00
-1.240597e+00
-1.235376e+00
-1.230174e+00
-1.224984e+00
-1.219806e+00
-1.214649e+00
-1.209504e+00
-1.204372e+00
-1.199264e+00
-1.194167e+00
-1.189088e+00
-1.184031e+00
-1.178987e+00
-1.173969e+00
-1.168966e+00
-1.163980e+00
-1.159023e+00
-1.154082e+00
-1.149162e+00
-1.144270e+00
-1.139395e+00
-1.134550e+00
-1.129727e+00
-1.124925e+00
-1.120156e+00
-1.115410e+00
-1.110690e+00
-1.106004e+00
-1.101341e+00
-1.096712e+00
-1.092114e+00
-1.087542e+00
-1.083009e+00
-1.078507e+00
-1.074035e+00
-1.069606e+00
-1.065207e+00
-1.060846e+00
-1.056528e+00
-1.052242e+00
-1.048003e+00
-1.043802e+00
-1.039640e+00
-1.035529e+00
-1.031457e+00
-1.027431e+00
-1.023457e+00
-1.019525e+00
-1.015648e+00
-1.011819e+00
-1.008039e+00
-1.004320e+00
-1.000652e+00
-9.970378e-01
-9.934880e-01
-9.899917e-01
-9.865596e-01
-9.831906e-01
-9.798806e-01
-9.766437e-01
-9.734702e-01
-9.703636e-01
-9.673350e-01
-9.643739e-01
-9.614886e-01
-9.586846e-01
-9.559533e-01
-9.533102e-01
-9.507468e-01
-9.482665e-01
-9.458821e-01
-9.435834e-01
-9.413778e-01
-9.392750e-01
-9.372661e-01
-9.353628e-01
-9.335692e-01
-9.318802e-01
-9.303104e-01
-9.288600e-01
-9.275284e-01
-9.263229e-01
-9.252584e-01
-9.243388e-01
-9.235571e-01
-9.229154e-01
-9.224291e-01
-9.221012e-01
-9.219359e-01
