# vtk DataFile Version 3.0
Monodomain MVF
ASCII
DATASET POLYDATA
POINTS 501 float
0.000000e+00 0.000000e+00 0.000000e+00
1.000000e-02 0.000000e+00 0.000000e+00
2.000000e-02 0.000000e+00 0.000000e+00
3.000000e-02 0.000000e+00 0.000000e+00
4.000000e-02 0.000000e+00 0.000000e+00
5.000000e-02 0.000000e+00 0.000000e+00
6.000000e-02 0.000000e+00 0.000000e+00
7.000000e-02 0.000000e+00 0.000000e+00
8.000000e-02 0.000000e+00 0.000000e+00
9.000000e-02 0.000000e+00 0.000000e+00
1.000000e-01 0.000000e+00 0.000000e+00
1.100000e-01 0.000000e+00 0.000000e+00
1.200000e-01 0.000000e+00 0.000000e+00
1.300000e-01 0.000000e+00 0.000000e+00
1.400000e-01 0.000000e+00 0.000000e+00
1.500000e-01 0.000000e+00 0.000000e+00
1.600000e-01 0.000000e+00 0.000000e+00
1.700000e-01 0.000000e+00 0.000000e+00
1.800000e-01 0.000000e+00 0.000000e+00
1.900000e-01 0.000000e+00 0.000000e+00
2.000000e-01 0.000000e+00 0.000000e+00
2.100000e-01 0.000000e+00 0.000000e+00
2.200000e-01 0.000000e+00 0.000000e+00
2.300000e-01 0.000000e+00 0.000000e+00
2.400000e-01 0.000000e+00 0.000000e+00
2.500000e-01 0.000000e+00 0.000000e+00
2.600000e-01 0.000000e+00 0.000000e+00
2.700000e-01 0.000000e+00 0.000000e+00
2.800000e-01 0.000000e+00 0.000000e+00
2.900000e-01 0.000000e+00 0.000000e+00
3.000000e-01 0.000000e+00 0.000000e+00
3.100000e-01 0.000000e+00 0.000000e+00
3.200000e-01 0.000000e+00 0.000000e+00
3.300000e-01 0.000000e+00 0.000000e+00
3.400000e-01 0.000000e+00 0.000000e+00
3.500000e-01 0.000000e+00 0.000000e+00
3.600000e-01 0.000000e+00 0.000000e+00
3.700000e-01 0.000000e+00 0.000000e+00
3.800000e-01 0.000000e+00 0.000000e+00
3.900000e-01 0.000000e+00 0.000000e+00
4.000000e-01 0.000000e+00 0.000000e+00
4.100000e-01 0.000000e+00 0.000000e+00
4.200000e-01 0.000000e+00 0.000000e+00
4.300000e-01 0.000000e+00 0.000000e+00
4.400000e-01 0.000000e+00 0.000000e+00
4.500000e-01 0.000000e+00 0.000000e+00
4.600000e-01 0.000000e+00 0.000000e+00
4.700000e-01 0.000000e+00 0.000000e+00
4.800000e-01 0.000000e+00 0.000000e+00
4.900000e-01 0.000000e+00 0.000000e+00
5.000000e-01 0.000000e+00 0.000000e+00
5.100000e-01 0.000000e+00 0.000000e+00
5.200000e-01 0.000000e+00 0.000000e+00
5.300000e-01 0.000000e+00 0.000000e+00
5.400000e-01 0.000000e+00 0.000000e+00
5.500000e-01 0.000000e+00 0.000000e+00
5.600000e-01 0.000000e+00 0.000000e+00
5.700000e-01 0.000000e+00 0.000000e+00
5.800000e-01 0.000000e+00 0.000000e+00
5.900000e-01 0.000000e+00 0.000000e+00
6.000000e-01 0.000000e+00 0.000000e+00
6.100000e-01 0.000000e+00 0.000000e+00
6.200000e-01 0.000000e+00 0.000000e+00
6.300000e-01 0.000000e+00 0.000000e+00
6.400000e-01 0.000000e+00 0.000000e+00
6.500000e-01 0.000000e+00 0.000000e+00
6.600000e-01 0.000000e+00 0.000000e+00
6.700000e-01 0.000000e+00 0.000000e+00
6.800000e-01 0.000000e+00 0.000000e+00
6.900000e-01 0.000000e+00 0.000000e+00
7.000000e-01 0.000000e+00 0.000000e+00
7.100000e-01 0.000000e+00 0.000000e+00
7.200000e-01 0.000000e+00 0.000000e+00
7.300000e-01 0.000000e+00 0.000000e+00
7.400000e-01 0.000000e+00 0.000000e+00
7.500000e-01 0.000000e+00 0.000000e+00
7.600000e-01 0.000000e+00 0.000000e+00
7.700000e-01 0.000000e+00 0.000000e+00
7.800000e-01 0.000000e+00 0.000000e+00
7.900000e-01 0.000000e+00 0.000000e+00
8.000000e-01 0.000000e+00 0.000000e+00
8.100000e-01 0.000000e+00 0.000000e+00
8.200000e-01 0.000000e+00 0.000000e+00
8.300000e-01 0.000000e+00 0.000000e+00
8.400000e-01 0.000000e+00 0.000000e+00
8.500000e-01 0.000000e+00 0.000000e+00
8.600000e-01 0.000000e+00 0.000000e+00
8.700000e-01 0.000000e+00 0.000000e+00
8.800000e-01 0.000000e+00 0.000000e+00
8.900000e-01 0.000000e+00 0.000000e+00
9.000000e-01 0.000000e+00 0.000000e+00
9.100000e-01 0.000000e+00 0.000000e+00
9.200000e-01 0.000000e+00 0.000000e+00
9.300000e-01 0.000000e+00 0.000000e+00
9.400000e-01 0.000000e+00 0.000000e+00
9.500000e-01 0.000000e+00 0.000000e+00
9.600000e-01 0.000000e+00 0.000000e+00
9.700000e-01 0.000000e+00 0.000000e+00
9.800000e-01 0.000000e+00 0.000000e+00
9.900000e-01 0.000000e+00 0.000000e+00
1.000000e+00 0.000000e+00 0.000000e+00
1.010000e+00 0.000000e+00 0.000000e+00
1.020000e+00 0.000000e+00 0.000000e+00
1.030000e+00 0.000000e+00 0.000000e+00
1.040000e+00 0.000000e+00 0.000000e+00
1.050000e+00 0.000000e+00 0.000000e+00
1.060000e+00 0.000000e+00 0.000000e+00
1.070000e+00 0.000000e+00 0.000000e+00
1.080000e+00 0.000000e+00 0.000000e+00
1.090000e+00 0.000000e+00 0.000000e+00
1.100000e+00 0.000000e+00 0.000000e+00
1.110000e+00 0.000000e+00 0.000000e+00
1.120000e+00 0.000000e+00 0.000000e+00
1.130000e+00 0.000000e+00 0.000000e+00
1.140000e+00 0.000000e+00 0.000000e+00
1.150000e+00 0.000000e+00 0.000000e+00
1.160000e+00 0.000000e+00 0.000000e+00
1.170000e+00 0.000000e+00 0.000000e+00
1.180000e+00 0.000000e+00 0.000000e+00
1.190000e+00 0.000000e+00 0.000000e+00
1.200000e+00 0.000000e+00 0.000000e+00
1.210000e+00 0.000000e+00 0.000000e+00
1.220000e+00 0.000000e+00 0.000000e+00
1.230000e+00 0.000000e+00 0.000000e+00
1.240000e+00 0.000000e+00 0.000000e+00
1.250000e+00 0.000000e+00 0.000000e+00
1.260000e+00 0.000000e+00 0.000000e+00
1.270000e+00 0.000000e+00 0.000000e+00
1.280000e+00 0.000000e+00 0.000000e+00
1.290000e+00 0.000000e+00 0.000000e+00
1.300000e+00 0.000000e+00 0.000000e+00
1.310000e+00 0.000000e+00 0.000000e+00
1.320000e+00 0.000000e+00 0.000000e+00
1.330000e+00 0.000000e+00 0.000000e+00
1.340000e+00 0.000000e+00 0.000000e+00
1.350000e+00 0.000000e+00 0.000000e+00
1.360000e+00 0.000000e+00 0.000000e+00
1.370000e+00 0.000000e+00 0.000000e+00
1.380000e+00 0.000000e+00 0.000000e+00
1.390000e+00 0.000000e+00 0.000000e+00
1.400000e+00 0.000000e+00 0.000000e+00
1.410000e+00 0.000000e+00 0.000000e+00
1.420000e+00 0.000000e+00 0.000000e+00
1.430000e+00 0.000000e+00 0.000000e+00
1.440000e+00 0.000000e+00 0.000000e+00
1.450000e+00 0.000000e+00 0.000000e+00
1.460000e+00 0.000000e+00 0.000000e+00
1.470000e+00 0.000000e+00 0.000000e+00
1.480000e+00 0.000000e+00 0.000000e+00
1.490000e+00 0.000000e+00 0.000000e+00
1.500000e+00 0.000000e+00 0.000000e+00
1.510000e+00 0.000000e+00 0.000000e+00
1.520000e+00 0.000000e+00 0.000000e+00
1.530000e+00 0.000000e+00 0.000000e+00
1.540000e+00 0.000000e+00 0.000000e+00
1.550000e+00 0.000000e+00 0.000000e+00
1.560000e+00 0.000000e+00 0.000000e+00
1.570000e+00 0.000000e+00 0.000000e+00
1.580000e+00 0.000000e+00 0.000000e+00
1.590000e+00 0.000000e+00 0.000000e+00
1.600000e+00 0.000000e+00 0.000000e+00
1.610000e+00 0.000000e+00 0.000000e+00
1.620000e+00 0.000000e+00 0.000000e+00
1.630000e+00 0.000000e+00 0.000000e+00
1.640000e+00 0.000000e+00 0.000000e+00
1.650000e+00 0.000000e+00 0.000000e+00
1.660000e+00 0.000000e+00 0.000000e+00
1.670000e+00 0.000000e+00 0.000000e+00
1.680000e+00 0.000000e+00 0.000000e+00
1.690000e+00 0.000000e+00 0.000000e+00
1.700000e+00 0.000000e+00 0.000000e+00
1.710000e+00 0.000000e+00 0.000000e+00
1.720000e+00 0.000000e+00 0.000000e+00
1.730000e+00 0.000000e+00 0.000000e+00
1.740000e+00 0.000000e+00 0.000000e+00
1.750000e+00 0.000000e+00 0.000000e+00
1.760000e+00 0.000000e+00 0.000000e+00
1.770000e+00 0.000000e+00 0.000000e+00
1.780000e+00 0.000000e+00 0.000000e+00
1.790000e+00 0.000000e+00 0.000000e+00
1.800000e+00 0.000000e+00 0.000000e+00
1.810000e+00 0.000000e+00 0.000000e+00
1.820000e+00 0.000000e+00 0.000000e+00
1.830000e+00 0.000000e+00 0.000000e+00
1.840000e+00 0.000000e+00 0.000000e+00
1.850000e+00 0.000000e+00 0.000000e+00
1.860000e+00 0.000000e+00 0.000000e+00
1.870000e+00 0.000000e+00 0.000000e+00
1.880000e+00 0.000000e+00 0.000000e+00
1.890000e+00 0.000000e+00 0.000000e+00
1.900000e+00 0.000000e+00 0.000000e+00
1.910000e+00 0.000000e+00 0.000000e+00
1.920000e+00 0.000000e+00 0.000000e+00
1.930000e+00 0.000000e+00 0.000000e+00
1.940000e+00 0.000000e+00 0.000000e+00
1.950000e+00 0.000000e+00 0.000000e+00
1.960000e+00 0.000000e+00 0.000000e+00
1.970000e+00 0.000000e+00 0.000000e+00
1.980000e+00 0.000000e+00 0.000000e+00
1.990000e+00 0.000000e+00 0.000000e+00
2.000000e+00 0.000000e+00 0.000000e+00
2.010000e+00 0.000000e+00 0.000000e+00
2.020000e+00 0.000000e+00 0.000000e+00
2.030000e+00 0.000000e+00 0.000000e+00
2.040000e+00 0.000000e+00 0.000000e+00
2.050000e+00 0.000000e+00 0.000000e+00
2.060000e+00 0.000000e+00 0.000000e+00
2.070000e+00 0.000000e+00 0.000000e+00
2.080000e+00 0.000000e+00 0.000000e+00
2.090000e+00 0.000000e+00 0.000000e+00
2.100000e+00 0.000000e+00 0.000000e+00
2.110000e+00 0.000000e+00 0.000000e+00
2.120000e+00 0.000000e+00 0.000000e+00
2.130000e+00 0.000000e+00 0.000000e+00
2.140000e+00 0.000000e+00 0.000000e+00
2.150000e+00 0.000000e+00 0.000000e+00
2.160000e+00 0.000000e+00 0.000000e+00
2.170000e+00 0.000000e+00 0.000000e+00
2.180000e+00 0.000000e+00 0.000000e+00
2.190000e+00 0.000000e+00 0.000000e+00
2.200000e+00 0.000000e+00 0.000000e+00
2.210000e+00 0.000000e+00 0.000000e+00
2.220000e+00 0.000000e+00 0.000000e+00
2.230000e+00 0.000000e+00 0.000000e+00
2.240000e+00 0.000000e+00 0.000000e+00
2.250000e+00 0.000000e+00 0.000000e+00
2.260000e+00 0.000000e+00 0.000000e+00
2.270000e+00 0.000000e+00 0.000000e+00
2.280000e+00 0.000000e+00 0.000000e+00
2.290000e+00 0.000000e+00 0.000000e+00
2.300000e+00 0.000000e+00 0.000000e+00
2.310000e+00 0.000000e+00 0.000000e+00
2.320000e+00 0.000000e+00 0.000000e+00
2.330000e+00 0.000000e+00 0.000000e+00
2.340000e+00 0.000000e+00 0.000000e+00
2.350000e+00 0.000000e+00 0.000000e+00
2.360000e+00 0.000000e+00 0.000000e+00
2.370000e+00 0.000000e+00 0.000000e+00
2.380000e+00 0.000000e+00 0.000000e+00
2.390000e+00 0.000000e+00 0.000000e+00
2.400000e+00 0.000000e+00 0.000000e+00
2.410000e+00 0.000000e+00 0.000000e+00
2.420000e+00 0.000000e+00 0.000000e+00
2.430000e+00 0.000000e+00 0.000000e+00
2.440000e+00 0.000000e+00 0.000000e+00
2.450000e+00 0.000000e+00 0.000000e+00
2.460000e+00 0.000000e+00 0.000000e+00
2.470000e+00 0.000000e+00 0.000000e+00
2.480000e+00 0.000000e+00 0.000000e+00
2.490000e+00 0.000000e+00 0.000000e+00
2.500000e+00 0.000000e+00 0.000000e+00
2.510000e+00 0.000000e+00 0.000000e+00
2.520000e+00 0.000000e+00 0.000000e+00
2.530000e+00 0.000000e+00 0.000000e+00
[...]
POINT_DATA 501
SCALARS vm float 1
LOOKUP_TABLE default
7.897543e+00
7.897844e+00
7.898444e+00
7.899335e+00
7.900509e+00
7.901984e+00
7.903657e+00
7.905520e+00
7.907579e+00
7.909831e+00
7.912246e+00
7.914829e+00
7.917576e+00
7.920466e+00
7.923502e+00
7.926680e+00
7.929984e+00
7.933415e+00
7.936971e+00
7.940634e+00
7.944410e+00
7.948295e+00
7.952271e+00
7.956348e+00
7.960520e+00
7.964769e+00
7.969108e+00
7.973529e+00
7.978018e+00
7.982586e+00
7.987223e+00
7.991921e+00
7.996689e+00
8.001511e+00
8.006395e+00
8.011338e+00
8.016325e+00
8.021369e+00
8.026465e+00
8.031598e+00
8.036782e+00
8.042009e+00
8.047271e+00
8.052579e+00
8.057917e+00
8.063296e+00
8.068713e+00
8.074153e+00
8.079632e+00
8.085143e+00
8.090675e+00
8.096243e+00
8.101833e+00
8.107450e+00
8.113098e+00
8.118759e+00
8.124451e+00
8.130169e+00
8.135898e+00
8.141655e+00
8.147433e+00
8.153223e+00
8.159041e+00
8.164869e+00
8.170719e+00
8.176590e+00
8.182468e+00
8.188369e+00
8.194287e+00
8.200213e+00
8.206161e+00
8.212118e+00
8.218091e+00
8.224083e+00
8.230078e+00
8.236094e+00
8.242124e+00
8.248158e+00
8.254213e+00
8.260277e+00
8.266349e+00
8.272440e+00
8.278533e+00
8.284644e+00
8.290769e+00
8.296895e+00
8.303040e+00
8.309195e+00
8.315353e+00
8.321531e+00
8.327710e+00
8.333904e+00
8.340112e+00
8.346320e+00
8.352545e+00
8.358781e+00
8.365019e+00
8.371274e+00
8.377532e+00
8.383802e+00
8.390087e+00
8.396370e+00
8.402670e+00
8.408982e+00
8.415293e+00
8.421622e+00
8.427958e+00
8.434298e+00
8.440655e+00
8.447012e+00
8.453383e+00
8.459767e+00
8.466150e+00
8.472549e+00
8.478958e+00
8.485368e+00
8.491795e+00
8.498223e+00
8.504665e+00
8.511119e+00
8.517572e+00
8.524041e+00
8.530521e+00
8.537000e+00
8.543497e+00
8.549996e+00
8.556506e+00
8.563030e+00
8.569552e+00
8.576091e+00
8.582641e+00
8.589189e+00
8.595755e+00
8.602328e+00
8.608904e+00
8.615498e+00
8.622091e+00
8.628698e+00
8.635318e+00
8.641936e+00
8.648571e+00
8.655216e+00
8.661861e+00
8.668524e+00
8.675188e+00
8.681864e+00
8.688555e+00
8.695243e+00
8.701948e+00
8.708663e+00
8.715378e+00
8.722112e+00
8.728847e+00
8.735593e+00
8.742354e+00
8.749113e+00
8.755888e+00
8.762676e+00
8.769461e+00
8.776265e+00
8.783076e+00
8.789890e+00
8.796723e+00
8.803555e+00
8.810401e+00
8.817261e+00
8.824118e+00
8.830994e+00
8.837879e+00
8.844765e+00
8.851670e+00
8.858575e+00
8.865494e+00
8.872427e+00
8.879358e+00
8.886306e+00
8.893266e+00
8.900225e+00
8.907203e+00
8.914185e+00
8.921176e+00
8.928184e+00
8.935190e+00
8.942213e+00
8.949249e+00
8.956283e+00
8.963336e+00
8.970398e+00
8.977462e+00
8.984547e+00
8.991630e+00
8.998729e+00
9.005843e+00
9.012954e+00
9.020085e+00
9.027226e+00
9.034368e+00
9.041530e+00
9.048694e+00
9.055871e+00
9.063065e+00
9.070256e+00
9.077466e+00
9.084688e+00
9.091911e+00
9.099153e+00
9.106400e+00
9.113658e+00
9.120933e+00
9.128208e+00
9.135499e+00
9.142806e+00
9.150111e+00
9.157438e+00
9.164773e+00
9.172112e+00
9.179473e+00
9.186833e+00
9.194211e+00
9.201605e+00
9.208997e+00
9.216410e+00
9.223834e+00
9.231261e+00
9.238710e+00
9.246161e+00
9.253627e+00
9.261111e+00
9.268594e+00
9.276097e+00
9.283615e+00
9.291133e+00
9.298674e+00
9.306220e+00
9.313778e+00
9.321356e+00
9.328934e+00
9.336532e+00
9.344146e+00
9.351760e+00
9.359397e+00
9.367045e+00
9.374698e+00
9.382376e+00
9.390054e+00
9.397751e+00
9.405467e+00
9.413182e+00
9.420921e+00
9.428673e+00
9.436429e+00
9.444210e+00
9.451994e+00
9.459795e+00
9.467618e+00
9.475439e+00
9.483284e+00
9.491147e+00
9.499010e+00
9.506900e+00
9.514798e+00
9.522707e+00
9.530642e+00
9.538577e+00
9.546534e+00
9.554511e+00
9.562489e+00
9.570494e+00
9.578512e+00
9.586537e+00
9.594590e+00
9.602645e+00
9.610722e+00
9.618821e+00
9.626921e+00
9.635047e+00
9.643191e+00
9.651339e+00
9.659517e+00
9.667701e+00
9.675903e+00
9.684132e+00
9.692361e+00
9.700617e+00
9.708893e+00
9.717173e+00
9.725483e+00
9.733805e+00
9.742139e+00
9.750504e+00
9.758871e+00
9.767264e+00
9.775681e+00
9.784101e+00
9.792552e+00
9.801020e+00
9.809496e+00
9.818006e+00
9.826521e+00
9.835060e+00
9.843628e+00
9.852197e+00
9.860798e+00
9.869420e+00
9.878050e+00
9.886713e+00
9.895386e+00
9.904081e+00
9.912808e+00
9.921538e+00
9.930298e+00
9.939084e+00
9.947876e+00
9.956704e+00
9.965547e+00
9.974406e+00
9.983301e+00
9.992202e+00
1.000113e+01
1.001009e+01
1.001906e+01
1.002806e+01
1.003709e+01
1.004612e+01
1.005520e+01
1.006428e+01
1.007340e+01
1.008254e+01
1.009170e+01
1.010088e+01
1.011010e+01
1.011933e+01
1.012859e+01
1.013787e+01
1.014718e+01
1.015653e+01
1.016588e+01
1.017526e+01
1.018468e+01
1.019411e+01
1.020358e+01
1.021308e+01
1.022259e+01
1.023214e+01
1.024170e+01
1.025130e+01
1.026094e+01
1.027058e+01
1.028027e+01
1.028998e+01
1.029971e+01
1.030949e+01
1.031928e+01
1.032910e+01
1.033896e+01
1.034883e+01
1.035875e+01
1.036870e+01
1.037866e+01
1.038867e+01
1.039869e+01
1.040875e+01
1.041885e+01
1.042896e+01
1.043912e+01
1.044931e+01
1.045951e+01
1.046977e+01
1.048005e+01
1.049035e+01
1.050070e+01
1.051106e+01
1.052146e+01
1.053191e+01
1.054236e+01
1.055287e+01
1.056340e+01
1.057396e+01
1.058456e+01
1.059518e+01
1.060584e+01
1.061654e+01
1.062726e+01
1.063802e+01
1.064881e+01
1.065962e+01
1.067048e+01
1.068136e+01
1.069227e+01
1.070323e+01
1.071420e+01
1.072521e+01
1.073627e+01
1.074733e+01
1.075844e+01
1.076958e+01
1.078074e+01
1.079195e+01
1.080316e+01
1.081442e+01
1.082572e+01
1.083702e+01
1.084837e+01
1.085974e+01
1.087113e+01
1.088257e+01
1.089402e+01
1.090549e+01
1.091701e+01
1.092853e+01
1.094008e+01
1.095167e+01
1.096326e+01
1.097489e+01
1.098653e+01
1.099819e+01
1.100989e+01
1.102158e+01
1.103330e+01
1.104504e+01
1.105678e+01
1.106856e+01
1.108034e+01
1.109212e+01
1.110393e+01
1.111573e+01
1.112755e+01
1.113939e+01
1.115120e+01
1.116304e+01
1.117488e+01
1.118670e+01
1.119854e+01
1.121036e+01
1.122218e+01
1.123400e+01
1.124579e+01
1.125758e+01
1.126936e+01
1.128110e+01
1.129285e+01
1.130456e+01
1.131624e+01
1.132792e+01
1.133953e+01
1.135112e+01
1.136269e+01
1.137419e+01
1.138568e+01
1.139711e+01
1.140847e+01
1.141981e+01
1.143106e+01
1.144226e+01
1.145341e+01
1.146445e+01
1.147545e+01
1.148637e+01
1.149718e+01
1.150794e+01
1.151858e+01
1.152912e+01
1.153958e+01
1.154989e+01
1.156012e+01
1.157023e+01
1.158018e+01
1.159004e+01
1.159974e+01
1.160928e+01
1.161870e+01
1.162793e+01
1.163701e+01
1.164593e+01
1.165463e+01
1.166318e+01
1.167153e+01
1.167964e+01
1.168759e+01
1.169527e+01
1.170274e+01
1.170999e+01
1.171694e+01
1.172367e+01
1.173013e+01
1.173627e+01
1.174217e+01
1.174775e+01
1.175298e+01
1.175794e+01
1.176254e+01
1.176675e+01
1.177066e+01
1.177419e+01
1.177725e+01
1.177989e+01
1.178219e+01
1.178410e+01
1.178555e+01
1.178652e+01
1.178700e+01
