# vtk DataFile Version 3.0
Monodomain MVF
ASCII
DATASET POLYDATA
POINTS 501 float
0.000000e+00 0.000000e+00 0.000000e+00
1.000000e-02 0.000000e+00 0.000000e+00
2.000000e-02 0.000000e+00 0.000000e+00
3.000000e-02 0.000000e+00 0.000000e+00
4.000000e-02 0.000000e+00 0.000000e+00
5.000000e-02 0.000000e+00 0.000000e+00
6.000000e-02 0.000000e+00 0.000000e+00
7.000000e-02 0.000000e+00 0.000000e+00
8.000000e-02 0.000000e+00 0.000000e+00
9.000000e-02 0.000000e+00 0.000000e+00
1.000000e-01 0.000000e+00 0.000000e+00
1.100000e-01 0.000000e+00 0.000000e+00
1.200000e-01 0.000000e+00 0.000000e+00
1.300000e-01 0.000000e+00 0.000000e+00
1.400000e-01 0.000000e+00 0.000000e+00
1.500000e-01 0.000000e+00 0.000000e+00
1.600000e-01 0.000000e+00 0.000000e+00
1.700000e-01 0.000000e+00 0.000000e+00
1.800000e-01 0.000000e+00 0.000000e+00
1.900000e-01 0.000000e+00 0.000000e+00
2.000000e-01 0.000000e+00 0.000000e+00
2.100000e-01 0.000000e+00 0.000000e+00
2.200000e-01 0.000000e+00 0.000000e+00
2.300000e-01 0.000000e+00 0.000000e+00
2.400000e-01 0.000000e+00 0.000000e+00
2.500000e-01 0.000000e+00 0.000000e+00
2.600000e-01 0.000000e+00 0.000000e+00
2.700000e-01 0.000000e+00 0.000000e+00
2.800000e-01 0.000000e+00 0.000000e+00
2.900000e-01 0.000000e+00 0.000000e+00
3.000000e-01 0.000000e+00 0.000000e+00
3.100000e-01 0.000000e+00 0.000000e+00
3.200000e-01 0.000000e+00 0.000000e+00
3.300000e-01 0.000000e+00 0.000000e+00
3.400000e-01 0.000000e+00 0.000000e+00
3.500000e-01 0.000000e+00 0.000000e+00
3.600000e-01 0.000000e+00 0.000000e+00
3.700000e-01 0.000000e+00 0.000000e+00
3.800000e-01 0.000000e+00 0.000000e+00
3.900000e-01 0.000000e+00 0.000000e+00
4.000000e-01 0.000000e+00 0.000000e+00
4.100000e-01 0.000000e+00 0.000000e+00
4.200000e-01 0.000000e+00 0.000000e+00
4.300000e-01 0.000000e+00 0.000000e+00
4.400000e-01 0.000000e+00 0.000000e+00
4.500000e-01 0.000000e+00 0.000000e+00
4.600000e-01 0.000000e+00 0.000000e+00
4.700000e-01 0.000000e+00 0.000000e+00
4.800000e-01 0.000000e+00 0.000000e+00
4.900000e-01 0.000000e+00 0.000000e+00
5.000000e-01 0.000000e+00 0.000000e+00
5.100000e-01 0.000000e+00 0.000000e+00
5.200000e-01 0.000000e+00 0.000000e+00
5.300000e-01 0.000000e+00 0.000000e+00
5.400000e-01 0.000000e+00 0.000000e+00
5.500000e-01 0.000000e+00 0.000000e+00
5.600000e-01 0.000000e+00 0.000000e+00
5.700000e-01 0.000000e+00 0.000000e+00
5.800000e-01 0.000000e+00 0.000000e+00
5.900000e-01 0.000000e+00 0.000000e+00
6.000000e-01 0.000000e+00 0.000000e+00
6.100000e-01 0.000000e+00 0.000000e+00
6.200000e-01 0.000000e+00 0.000000e+00
6.300000e-01 0.000000e+00 0.000000e+00
6.400000e-01 0.000000e+00 0.000000e+00
6.500000e-01 0.000000e+00 0.000000e+00
6.600000e-01 0.000000e+00 0.000000e+00
6.700000e-01 0.000000e+00 0.000000e+00
6.800000e-01 0.000000e+00 0.000000e+00
6.900000e-01 0.000000e+00 0.000000e+00
7.000000e-01 0.000000e+00 0.000000e+00
7.100000e-01 0.000000e+00 0.000000e+00
7.200000e-01 0.000000e+00 0.000000e+00
7.300000e-01 0.000000e+00 0.000000e+00
7.400000e-01 0.000000e+00 0.000000e+00
7.500000e-01 0.000000e+00 0.000000e+00
7.600000e-01 0.000000e+00 0.000000e+00
7.700000e-01 0.000000e+00 0.000000e+00
7.800000e-01 0.000000e+00 0.000000e+00
7.900000e-01 0.000000e+00 0.000000e+00
8.000000e-01 0.000000e+00 0.000000e+00
8.100000e-01 0.000000e+00 0.000000e+00
8.200000e-01 0.000000e+00 0.000000e+00
8.300000e-01 0.000000e+00 0.000000e+00
8.400000e-01 0.000000e+00 0.000000e+00
8.500000e-01 0.000000e+00 0.000000e+00
8.600000e-01 0.000000e+00 0.000000e+00
8.700000e-01 0.000000e+00 0.000000e+00
8.800000e-01 0.000000e+00 0.000000e+00
8.900000e-01 0.000000e+00 0.000000e+00
9.000000e-01 0.000000e+00 0.000000e+00
9.100000e-01 0.000000e+00 0.000000e+00
9.200000e-01 0.000000e+00 0.000000e+00
9.300000e-01 0.000000e+00 0.000000e+00
9.400000e-01 0.000000e+00 0.000000e+00
9.500000e-01 0.000000e+00 0.000000e+00
9.600000e-01 0.000000e+00 0.000000e+00
9.700000e-01 0.000000e+00 0.000000e+00
9.800000e-01 0.000000e+00 0.000000e+00
9.900000e-01 0.000000e+00 0.000000e+00
1.000000e+00 0.000000e+00 0.000000e+00
1.010000e+00 0.000000e+00 0.000000e+00
1.020000e+00 0.000000e+00 0.000000e+00
1.030000e+00 0.000000e+00 0.000000e+00
1.040000e+00 0.000000e+00 0.000000e+00
1.050000e+00 0.000000e+00 0.000000e+00
1.060000e+00 0.000000e+00 0.000000e+00
1.070000e+00 0.000000e+00 0.000000e+00
1.080000e+00 0.000000e+00 0.000000e+00
1.090000e+00 0.000000e+00 0.000000e+00
1.100000e+00 0.000000e+00 0.000000e+00
1.110000e+00 0.000000e+00 0.000000e+00
1.120000e+00 0.000000e+00 0.000000e+00
1.130000e+00 0.000000e+00 0.000000e+00
1.140000e+00 0.000000e+00 0.000000e+00
1.150000e+00 0.000000e+00 0.000000e+00
1.160000e+00 0.000000e+00 0.000000e+00
1.170000e+00 0.000000e+00 0.000000e+00
1.180000e+00 0.000000e+00 0.000000e+00
1.190000e+00 0.000000e+00 0.000000e+00
1.200000e+00 0.000000e+00 0.000000e+00
1.210000e+00 0.000000e+00 0.000000e+00
1.220000e+00 0.000000e+00 0.000000e+00
1.230000e+00 0.000000e+00 0.000000e+00
1.240000e+00 0.000000e+00 0.000000e+00
1.250000e+00 0.000000e+00 0.000000e+00
1.260000e+00 0.000000e+00 0.000000e+00
1.270000e+00 0.000000e+00 0.000000e+00
1.280000e+00 0.000000e+00 0.000000e+00
1.290000e+00 0.000000e+00 0.000000e+00
1.300000e+00 0.000000e+00 0.000000e+00
1.310000e+00 0.000000e+00 0.000000e+00
1.320000e+00 0.000000e+00 0.000000e+00
1.330000e+00 0.000000e+00 0.000000e+00
1.340000e+00 0.000000e+00 0.000000e+00
1.350000e+00 0.000000e+00 0.000000e+00
1.360000e+00 0.000000e+00 0.000000e+00
1.370000e+00 0.000000e+00 0.000000e+00
1.380000e+00 0.000000e+00 0.000000e+00
1.390000e+00 0.000000e+00 0.000000e+00
1.400000e+00 0.000000e+00 0.000000e+00
1.410000e+00 0.000000e+00 0.000000e+00
1.420000e+00 0.000000e+00 0.000000e+00
1.430000e+00 0.000000e+00 0.000000e+00
1.440000e+00 0.000000e+00 0.000000e+00
1.450000e+00 0.000000e+00 0.000000e+00
1.460000e+00 0.000000e+00 0.000000e+00
1.470000e+00 0.000000e+00 0.000000e+00
1.480000e+00 0.000000e+00 0.000000e+00
1.490000e+00 0.000000e+00 0.000000e+00
1.500000e+00 0.000000e+00 0.000000e+00
1.510000e+00 0.000000e+00 0.000000e+00
1.520000e+00 0.000000e+00 0.000000e+00
1.530000e+00 0.000000e+00 0.000000e+00
1.540000e+00 0.000000e+00 0.000000e+00
1.550000e+00 0.000000e+00 0.000000e+00
1.560000e+00 0.000000e+00 0.000000e+00
1.570000e+00 0.000000e+00 0.000000e+00
1.580000e+00 0.000000e+00 0.000000e+00
1.590000e+00 0.000000e+00 0.000000e+00
1.600000e+00 0.000000e+00 0.000000e+00
1.610000e+00 0.000000e+00 0.000000e+00
1.620000e+00 0.000000e+00 0.000000e+00
1.630000e+00 0.000000e+00 0.000000e+00
1.640000e+00 0.000000e+00 0.000000e+00
1.650000e+00 0.000000e+00 0.000000e+00
1.660000e+00 0.000000e+00 0.000000e+00
1.670000e+00 0.000000e+00 0.000000e+00
1.680000e+00 0.000000e+00 0.000000e+00
1.690000e+00 0.000000e+00 0.000000e+00
1.700000e+00 0.000000e+00 0.000000e+00
1.710000e+00 0.000000e+00 0.000000e+00
1.720000e+00 0.000000e+00 0.000000e+00
1.730000e+00 0.000000e+00 0.000000e+00
1.740000e+00 0.000000e+00 0.000000e+00
1.750000e+00 0.000000e+00 0.000000e+00
1.760000e+00 0.000000e+00 0.000000e+00
1.770000e+00 0.000000e+00 0.000000e+00
1.780000e+00 0.000000e+00 0.000000e+00
1.790000e+00 0.000000e+00 0.000000e+00
1.800000e+00 0.000000e+00 0.000000e+00
1.810000e+00 0.000000e+00 0.000000e+00
1.820000e+00 0.000000e+00 0.000000e+00
1.830000e+00 0.000000e+00 0.000000e+00
1.840000e+00 0.000000e+00 0.000000e+00
1.850000e+00 0.000000e+00 0.000000e+00
1.860000e+00 0.000000e+00 0.000000e+00
1.870000e+00 0.000000e+00 0.000000e+00
1.880000e+00 0.000000e+00 0.000000e+00
1.890000e+00 0.000000e+00 0.000000e+00
1.900000e+00 0.000000e+00 0.000000e+00
1.910000e+00 0.000000e+00 0.000000e+00
1.920000e+00 0.000000e+00 0.000000e+00
1.930000e+00 0.000000e+00 0.000000e+00
1.940000e+00 0.000000e+00 0.000000e+00
1.950000e+00 0.000000e+00 0.000000e+00
1.960000e+00 0.000000e+00 0.000000e+00
1.970000e+00 0.000000e+00 0.000000e+00
1.980000e+00 0.000000e+00 0.000000e+00
1.990000e+00 0.000000e+00 0.000000e+00
2.000000e+00 0.000000e+00 0.000000e+00
2.010000e+00 0.000000e+00 0.000000e+00
2.020000e+00 0.000000e+00 0.000000e+00
2.030000e+00 0.000000e+00 0.000000e+00
2.040000e+00 0.000000e+00 0.000000e+00
2.050000e+00 0.000000e+00 0.000000e+00
2.060000e+00 0.000000e+00 0.000000e+00
2.070000e+00 0.000000e+00 0.000000e+00
2.080000e+00 0.000000e+00 0.000000e+00
2.090000e+00 0.000000e+00 0.000000e+00
2.100000e+00 0.000000e+00 0.000000e+00
2.110000e+00 0.000000e+00 0.000000e+00
2.120000e+00 0.000000e+00 0.000000e+00
2.130000e+00 0.000000e+00 0.000000e+00
2.140000e+00 0.000000e+00 0.000000e+00
2.150000e+00 0.000000e+00 0.000000e+00
2.160000e+00 0.000000e+00 0.000000e+00
2.170000e+00 0.000000e+00 0.000000e+00
2.180000e+00 0.000000e+00 0.000000e+00
2.190000e+00 0.000000e+00 0.000000e+00
2.200000e+00 0.000000e+00 0.000000e+00
2.210000e+00 0.000000e+00 0.000000e+00
2.220000e+00 0.000000e+00 0.000000e+00
2.230000e+00 0.000000e+00 0.000000e+00
2.240000e+00 0.000000e+00 0.000000e+00
2.250000e+00 0.000000e+00 0.000000e+00
2.260000e+00 0.000000e+00 0.000000e+00
2.270000e+00 0.000000e+00 0.000000e+00
2.280000e+00 0.000000e+00 0.000000e+00
2.290000e+00 0.000000e+00 0.000000e+00
2.300000e+00 0.000000e+00 0.000000e+00
2.310000e+00 0.000000e+00 0.000000e+00
2.320000e+00 0.000000e+00 0.000000e+00
2.330000e+00 0.000000e+00 0.000000e+00
2.340000e+00 0.000000e+00 0.000000e+00
2.350000e+00 0.000000e+00 0.000000e+00
2.360000e+00 0.000000e+00 0.000000e+00
2.370000e+00 0.000000e+00 0.000000e+00
2.380000e+00 0.000000e+00 0.000000e+00
2.390000e+00 0.000000e+00 0.000000e+00
2.400000e+00 0.000000e+00 0.000000e+00
2.410000e+00 0.000000e+00 0.000000e+00
2.420000e+00 0.000000e+00 0.000000e+00
2.430000e+00 0.000000e+00 0.000000e+00
2.440000e+00 0.000000e+00 0.000000e+00
2.450000e+00 0.000000e+00 0.000000e+00
2.460000e+00 0.000000e+00 0.000000e+00
2.470000e+00 0.000000e+00 0.000000e+00
2.480000e+00 0.000000e+00 0.000000e+00
2.490000e+00 0.000000e+00 0.000000e+00
2.500000e+00 0.000000e+00 0.000000e+00
2.510000e+00 0.000000e+00 0.000000e+00
2.520000e+00 0.000000e+00 0.000000e+00
2.530000e+00 0.000000e+00 0.000000e+00
[...]
POINT_DATA 501
SCALARS vm float 1
LOOKUP_TABLE default
-2.107990e+00
-2.107702e+00
-2.107128e+00
-2.106275e+00
-2.105153e+00
-2.103750e+00
-2.102146e+00
-2.100350e+00
-2.098362e+00
-2.096185e+00
-2.093840e+00
-2.091328e+00
-2.088655e+00
-2.085835e+00
-2.082869e+00
-2.079762e+00
-2.076527e+00
-2.073164e+00
-2.069678e+00
-2.066081e+00
-2.062372e+00
-2.058555e+00
-2.054643e+00
-2.050633e+00
-2.046529e+00
-2.042344e+00
-2.038072e+00
-2.033719e+00
-2.029295e+00
-2.024797e+00
-2.020228e+00
-2.015599e+00
-2.010903e+00
-2.006152e+00
-2.001341e+00
-1.996475e+00
-1.991563e+00
-1.986598e+00
-1.981585e+00
-1.976534e+00
-1.971437e+00
-1.966299e+00
-1.961127e+00
-1.955915e+00
-1.950673e+00
-1.945395e+00
-1.940085e+00
-1.934751e+00
-1.929385e+00
-1.923991e+00
-1.918577e+00
-1.913136e+00
-1.907674e+00
-1.902191e+00
-1.896684e+00
-1.891164e+00
-1.885622e+00
-1.880061e+00
-1.874490e+00
-1.868899e+00
-1.863294e+00
-1.857679e+00
-1.852046e+00
-1.846407e+00
-1.840753e+00
-1.835086e+00
-1.829415e+00
-1.823730e+00
-1.818036e+00
-1.812338e+00
-1.806628e+00
-1.800914e+00
-1.795192e+00
-1.789460e+00
-1.783729e+00
-1.777988e+00
-1.772241e+00
-1.766494e+00
-1.760738e+00
-1.754979e+00
-1.749219e+00
-1.743452e+00
-1.737686e+00
-1.731914e+00
-1.726137e+00
-1.720364e+00
-1.714584e+00
-1.708802e+00
-1.703023e+00
-1.697236e+00
-1.691454e+00
-1.685667e+00
-1.679877e+00
-1.674092e+00
-1.668302e+00
-1.662510e+00
-1.656723e+00
-1.650930e+00
-1.645141e+00
-1.639350e+00
-1.633556e+00
-1.627769e+00
-1.621977e+00
-1.616183e+00
-1.610396e+00
-1.604605e+00
-1.598814e+00
-1.593027e+00
-1.587236e+00
-1.581451e+00
-1.575662e+00
-1.569873e+00
-1.564090e+00
-1.558303e+00
-1.552517e+00
-1.546735e+00
-1.540950e+00
-1.535170e+00
-1.529388e+00
-1.523605e+00
-1.517829e+00
-1.512049e+00
-1.506268e+00
-1.500494e+00
-1.494716e+00
-1.488943e+00
-1.483169e+00
-1.477393e+00
-1.471624e+00
-1.465852e+00
-1.460078e+00
-1.454312e+00
-1.448542e+00
-1.442773e+00
-1.437009e+00
-1.431241e+00
-1.425479e+00
-1.419714e+00
-1.413948e+00
-1.408189e+00
-1.402427e+00
-1.396664e+00
-1.390908e+00
-1.385146e+00
-1.379391e+00
-1.373633e+00
-1.367874e+00
-1.362122e+00
-1.356366e+00
-1.350609e+00
-1.344859e+00
-1.339104e+00
-1.333354e+00
-1.327603e+00
-1.321849e+00
-1.316103e+00
-1.310352e+00
-1.304601e+00
-1.298856e+00
-1.293107e+00
-1.287358e+00
-1.281615e+00
-1.275866e+00
-1.270124e+00
-1.264378e+00
-1.258631e+00
-1.252891e+00
-1.247146e+00
-1.241401e+00
-1.235661e+00
-1.229917e+00
-1.224177e+00
-1.218436e+00
-1.212691e+00
-1.206955e+00
-1.201213e+00
-1.195470e+00
-1.189734e+00
-1.183992e+00
-1.178254e+00
-1.172516e+00
-1.166774e+00
-1.161039e+00
-1.155300e+00
-1.149559e+00
-1.143824e+00
-1.138085e+00
-1.132346e+00
-1.126611e+00
-1.120871e+00
-1.115137e+00
-1.109399e+00
-1.103659e+00
-1.097925e+00
-1.092187e+00
-1.086448e+00
-1.080714e+00
-1.074975e+00
-1.069240e+00
-1.063504e+00
-1.057763e+00
-1.052030e+00
-1.046292e+00
-1.040553e+00
-1.034819e+00
-1.029080e+00
-1.023344e+00
-1.017607e+00
-1.011867e+00
-1.006133e+00
-1.000394e+00
-9.946535e-01
-9.889193e-01
-9.831795e-01
-9.774400e-01
-9.717046e-01
-9.659632e-01
-9.602275e-01
-9.544883e-01
-9.487459e-01
-9.430105e-01
-9.372695e-01
-9.315276e-01
-9.257909e-01
-9.200482e-01
-9.143101e-01
-9.085695e-01
-9.028252e-01
-8.970879e-01
-8.913451e-01
-8.856006e-01
-8.798621e-01
-8.741177e-01
-8.683758e-01
-8.626342e-01
-8.568878e-01
-8.511476e-01
-8.454032e-01
-8.396558e-01
-8.339151e-01
-8.281685e-01
-8.224219e-01
-8.166795e-01
-8.109308e-01
-8.051877e-01
-7.994409e-01
-7.936906e-01
-7.879474e-01
-7.821983e-01
-7.764482e-01
-7.707033e-01
-7.649521e-01
-7.592053e-01
-7.534562e-01
-7.477030e-01
-7.419568e-01
-7.362051e-01
-7.304514e-01
-7.247037e-01
-7.189500e-01
-7.131982e-01
-7.074477e-01
-7.016917e-01
-6.959420e-01
-6.901879e-01
-6.844307e-01
-6.786803e-01
-6.729239e-01
-6.671674e-01
-6.614151e-01
-6.556564e-01
-6.499033e-01
-6.441466e-01
-6.383862e-01
-6.326330e-01
-6.268740e-01
-6.211137e-01
-6.153588e-01
-6.095976e-01
-6.038408e-01
-5.980817e-01
-5.923185e-01
-5.865625e-01
-5.808009e-01
-5.750373e-01
-5.692800e-01
-5.635166e-01
-5.577546e-01
-5.519952e-01
-5.462297e-01
-5.404706e-01
-5.347074e-01
-5.289409e-01
-5.231815e-01
-5.174163e-01
-5.116508e-01
-5.058901e-01
-5.001229e-01
-4.943614e-01
-4.885966e-01
-4.828281e-01
-4.770671e-01
-4.713005e-01
-4.655327e-01
-4.597708e-01
-4.540026e-01
-4.482389e-01
-4.424736e-01
-4.367041e-01
-4.309416e-01
-4.251750e-01
-4.194059e-01
-4.136436e-01
-4.078755e-01
-4.021090e-01
-3.963456e-01
-3.905764e-01
-3.848140e-01
-3.790479e-01
-3.732789e-01
-3.675175e-01
-3.617506e-01
-3.559839e-01
-3.502226e-01
-3.444551e-01
-3.386939e-01
-3.329300e-01
-3.271629e-01
-3.214039e-01
-3.156400e-01
-3.098753e-01
-3.041173e-01
-2.983535e-01
-2.925949e-01
-2.868356e-01
-2.810726e-01
-2.753176e-01
-2.695591e-01
-2.637989e-01
-2.580465e-01
-2.522891e-01
-2.465341e-01
-2.407833e-01
-2.350275e-01
-2.292796e-01
-2.235290e-01
-2.177765e-01
-2.120327e-01
-2.062847e-01
-2.005378e-01
-1.947977e-01
-1.890527e-01
-1.833150e-01
-1.775763e-01
-1.718355e-01
-1.661043e-01
-1.603697e-01
-1.546356e-01
-1.489100e-01
-1.431802e-01
-1.374571e-01
-1.317352e-01
-1.260112e-01
-1.202970e-01
-1.145814e-01
-1.088657e-01
-1.031600e-01
-9.745127e-02
-9.174652e-02
-8.604925e-02
-8.034857e-02
-7.465816e-02
-6.896757e-02
-6.327726e-02
-5.759845e-02
-5.191787e-02
-4.624102e-02
-4.057382e-02
-3.490439e-02
-2.924535e-02
-2.358830e-02
-1.793208e-02
-1.228878e-02
-6.645344e-03
-1.005741e-03
4.621836e-03
1.025004e-02
1.586802e-02
2.148078e-02
2.709189e-02
3.268907e-02
3.828363e-02
4.387409e-02
4.945002e-02
5.502452e-02
6.059052e-02
6.614413e-02
7.169633e-02
7.723317e-02
8.276494e-02
8.829126e-02
9.380044e-02
9.930572e-02
1.048016e-01
1.102817e-01
1.157579e-01
1.212174e-01
1.266683e-01
1.321118e-01
1.375354e-01
1.429521e-01
1.483577e-01
1.537437e-01
1.591226e-01
1.644835e-01
1.698309e-01
1.751683e-01
1.804831e-01
1.857864e-01
1.910767e-01
1.963430e-01
2.015982e-01
2.068351e-01
2.120494e-01
2.172519e-01
2.224282e-01
2.275885e-01
2.327321e-01
2.378468e-01
2.429457e-01
2.480230e-01
2.530717e-01
2.581038e-01
2.631058e-01
2.680855e-01
2.730439e-01
2.779683e-01
2.828701e-01
2.877463e-01
2.925871e-01
2.974050e-01
3.021885e-01
3.069414e-01
3.116673e-01
3.163527e-01
3.210085e-01
3.256327e-01
3.302135e-01
3.347639e-01
3.392757e-01
3.437441e-01
3.481798e-01
3.525675e-01
3.569169e-01
3.612268e-01
3.654843e-01
3.697021e-01
3.738737e-01
3.779915e-01
3.820668e-01
3.860856e-01
3.900549e-01
3.939751e-01
3.978327e-01
4.016387e-01
4.053890e-01
4.090733e-01
4.127031e-01
4.162670e-01
4.197660e-01
4.232048e-01
4.265682e-01
4.298666e-01
4.330965e-01
4.362457e-01
4.393258e-01
4.423279e-01
4.452459e-01
4.480891e-01
4.508413e-01
4.535110e-01
4.560952e-01
4.585799e-01
4.609760e-01
4.632758e-01
4.654687e-01
4.675647e-01
4.695508e-01
4.714226e-01
4.731862e-01
4.748253e-01
4.763401e-01
4.777313e-01
4.789910e-01
4.801030e-01
4.810640e-01
4.818816e-01
4.825530e-01
4.830620e-01
4.834049e-01
4.835778e-01
