# vtk DataFile Version 3.0
Monodomain MVF
ASCII
DATASET POLYDATA
POINTS 501 float
0.000000e+00 0.000000e+00 0.000000e+00
1.000000e-02 0.000000e+00 0.000000e+00
2.000000e-02 0.000000e+00 0.000000e+00
3.000000e-02 0.000000e+00 0.000000e+00
4.000000e-02 0.000000e+00 0.000000e+00
5.000000e-02 0.000000e+00 0.000000e+00
6.000000e-02 0.000000e+00 0.000000e+00
7.000000e-02 0.000000e+00 0.000000e+00
8.000000e-02 0.000000e+00 0.000000e+00
9.000000e-02 0.000000e+00 0.000000e+00
1.000000e-01 0.000000e+00 0.000000e+00
1.100000e-01 0.000000e+00 0.000000e+00
1.200000e-01 0.000000e+00 0.000000e+00
1.300000e-01 0.000000e+00 0.000000e+00
1.400000e-01 0.000000e+00 0.000000e+00
1.500000e-01 0.000000e+00 0.000000e+00
1.600000e-01 0.000000e+00 0.000000e+00
1.700000e-01 0.000000e+00 0.000000e+00
1.800000e-01 0.000000e+00 0.000000e+00
1.900000e-01 0.000000e+00 0.000000e+00
2.000000e-01 0.000000e+00 0.000000e+00
2.100000e-01 0.000000e+00 0.000000e+00
2.200000e-01 0.000000e+00 0.000000e+00
2.300000e-01 0.000000e+00 0.000000e+00
2.400000e-01 0.000000e+00 0.000000e+00
2.500000e-01 0.000000e+00 0.000000e+00
2.600000e-01 0.000000e+00 0.000000e+00
2.700000e-01 0.000000e+00 0.000000e+00
2.800000e-01 0.000000e+00 0.000000e+00
2.900000e-01 0.000000e+00 0.000000e+00
3.000000e-01 0.000000e+00 0.000000e+00
3.100000e-01 0.000000e+00 0.000000e+00
3.200000e-01 0.000000e+00 0.000000e+00
3.300000e-01 0.000000e+00 0.000000e+00
3.400000e-01 0.000000e+00 0.000000e+00
3.500000e-01 0.000000e+00 0.000000e+00
3.600000e-01 0.000000e+00 0.000000e+00
3.700000e-01 0.000000e+00 0.000000e+00
3.800000e-01 0.000000e+00 0.000000e+00
3.900000e-01 0.000000e+00 0.000000e+00
4.000000e-01 0.000000e+00 0.000000e+00
4.100000e-01 0.000000e+00 0.000000e+00
4.200000e-01 0.000000e+00 0.000000e+00
4.300000e-01 0.000000e+00 0.000000e+00
4.400000e-01 0.000000e+00 0.000000e+00
4.500000e-01 0.000000e+00 0.000000e+00
4.600000e-01 0.000000e+00 0.000000e+00
4.700000e-01 0.000000e+00 0.000000e+00
4.800000e-01 0.000000e+00 0.000000e+00
4.900000e-01 0.000000e+00 0.000000e+00
5.000000e-01 0.000000e+00 0.000000e+00
5.100000e-01 0.000000e+00 0.000000e+00
5.200000e-01 0.000000e+00 0.000000e+00
5.300000e-01 0.000000e+00 0.000000e+00
5.400000e-01 0.000000e+00 0.000000e+00
5.500000e-01 0.000000e+00 0.000000e+00
5.600000e-01 0.000000e+00 0.000000e+00
5.700000e-01 0.000000e+00 0.000000e+00
5.800000e-01 0.000000e+00 0.000000e+00
5.900000e-01 0.000000e+00 0.000000e+00
6.000000e-01 0.000000e+00 0.000000e+00
6.100000e-01 0.000000e+00 0.000000e+00
6.200000e-01 0.000000e+00 0.000000e+00
6.300000e-01 0.000000e+00 0.000000e+00
6.400000e-01 0.000000e+00 0.000000e+00
6.500000e-01 0.000000e+00 0.000000e+00
6.600000e-01 0.000000e+00 0.000000e+00
6.700000e-01 0.000000e+00 0.000000e+00
6.800000e-01 0.000000e+00 0.000000e+00
6.900000e-01 0.000000e+00 0.000000e+00
7.000000e-01 0.000000e+00 0.000000e+00
7.100000e-01 0.000000e+00 0.000000e+00
7.200000e-01 0.000000e+00 0.000000e+00
7.300000e-01 0.000000e+00 0.000000e+00
7.400000e-01 0.000000e+00 0.000000e+00
7.500000e-01 0.000000e+00 0.000000e+00
7.600000e-01 0.000000e+00 0.000000e+00
7.700000e-01 0.000000e+00 0.000000e+00
7.800000e-01 0.000000e+00 0.000000e+00
7.900000e-01 0.000000e+00 0.000000e+00
8.000000e-01 0.000000e+00 0.000000e+00
8.100000e-01 0.000000e+00 0.000000e+00
8.200000e-01 0.000000e+00 0.000000e+00
8.300000e-01 0.000000e+00 0.000000e+00
8.400000e-01 0.000000e+00 0.000000e+00
8.500000e-01 0.000000e+00 0.000000e+00
8.600000e-01 0.000000e+00 0.000000e+00
8.700000e-01 0.000000e+00 0.000000e+00
8.800000e-01 0.000000e+00 0.000000e+00
8.900000e-01 0.000000e+00 0.000000e+00
9.000000e-01 0.000000e+00 0.000000e+00
9.100000e-01 0.000000e+00 0.000000e+00
9.200000e-01 0.000000e+00 0.000000e+00
9.300000e-01 0.000000e+00 0.000000e+00
9.400000e-01 0.000000e+00 0.000000e+00
9.500000e-01 0.000000e+00 0.000000e+00
9.600000e-01 0.000000e+00 0.000000e+00
9.700000e-01 0.000000e+00 0.000000e+00
9.800000e-01 0.000000e+00 0.000000e+00
9.900000e-01 0.000000e+00 0.000000e+00
1.000000e+00 0.000000e+00 0.000000e+00
1.010000e+00 0.000000e+00 0.000000e+00
1.020000e+00 0.000000e+00 0.000000e+00
1.030000e+00 0.000000e+00 0.000000e+00
1.040000e+00 0.000000e+00 0.000000e+00
1.050000e+00 0.000000e+00 0.000000e+00
1.060000e+00 0.000000e+00 0.000000e+00
1.070000e+00 0.000000e+00 0.000000e+00
1.080000e+00 0.000000e+00 0.000000e+00
1.090000e+00 0.000000e+00 0.000000e+00
1.100000e+00 0.000000e+00 0.000000e+00
1.110000e+00 0.000000e+00 0.000000e+00
1.120000e+00 0.000000e+00 0.000000e+00
1.130000e+00 0.000000e+00 0.000000e+00
1.140000e+00 0.000000e+00 0.000000e+00
1.150000e+00 0.000000e+00 0.000000e+00
1.160000e+00 0.000000e+00 0.000000e+00
1.170000e+00 0.000000e+00 0.000000e+00
1.180000e+00 0.000000e+00 0.000000e+00
1.190000e+00 0.000000e+00 0.000000e+00
1.200000e+00 0.000000e+00 0.000000e+00
1.210000e+00 0.000000e+00 0.000000e+00
1.220000e+00 0.000000e+00 0.000000e+00
1.230000e+00 0.000000e+00 0.000000e+00
1.240000e+00 0.000000e+00 0.000000e+00
1.250000e+00 0.000000e+00 0.000000e+00
1.260000e+00 0.000000e+00 0.000000e+00
1.270000e+00 0.000000e+00 0.000000e+00
1.280000e+00 0.000000e+00 0.000000e+00
1.290000e+00 0.000000e+00 0.000000e+00
1.300000e+00 0.000000e+00 0.000000e+00
1.310000e+00 0.000000e+00 0.000000e+00
1.320000e+00 0.000000e+00 0.000000e+00
1.330000e+00 0.000000e+00 0.000000e+00
1.340000e+00 0.000000e+00 0.000000e+00
1.350000e+00 0.000000e+00 0.000000e+00
1.360000e+00 0.000000e+00 0.000000e+00
1.370000e+00 0.000000e+00 0.000000e+00
1.380000e+00 0.000000e+00 0.000000e+00
1.390000e+00 0.000000e+00 0.000000e+00
1.400000e+00 0.000000e+00 0.000000e+00
1.410000e+00 0.000000e+00 0.000000e+00
1.420000e+00 0.000000e+00 0.000000e+00
1.430000e+00 0.000000e+00 0.000000e+00
1.440000e+00 0.000000e+00 0.000000e+00
1.450000e+00 0.000000e+00 0.000000e+00
1.460000e+00 0.000000e+00 0.000000e+00
1.470000e+00 0.000000e+00 0.000000e+00
1.480000e+00 0.000000e+00 0.000000e+00
1.490000e+00 0.000000e+00 0.000000e+00
1.500000e+00 0.000000e+00 0.000000e+00
1.510000e+00 0.000000e+00 0.000000e+00
1.520000e+00 0.000000e+00 0.000000e+00
1.530000e+00 0.000000e+00 0.000000e+00
1.540000e+00 0.000000e+00 0.000000e+00
1.550000e+00 0.000000e+00 0.000000e+00
1.560000e+00 0.000000e+00 0.000000e+00
1.570000e+00 0.000000e+00 0.000000e+00
1.580000e+00 0.000000e+00 0.000000e+00
1.590000e+00 0.000000e+00 0.000000e+00
1.600000e+00 0.000000e+00 0.000000e+00
1.610000e+00 0.000000e+00 0.000000e+00
1.620000e+00 0.000000e+00 0.000000e+00
1.630000e+00 0.000000e+00 0.000000e+00
1.640000e+00 0.000000e+00 0.000000e+00
1.650000e+00 0.000000e+00 0.000000e+00
1.660000e+00 0.000000e+00 0.000000e+00
1.670000e+00 0.000000e+00 0.000000e+00
1.680000e+00 0.000000e+00 0.000000e+00
1.690000e+00 0.000000e+00 0.000000e+00
1.700000e+00 0.000000e+00 0.000000e+00
1.710000e+00 0.000000e+00 0.000000e+00
1.720000e+00 0.000000e+00 0.000000e+00
1.730000e+00 0.000000e+00 0.000000e+00
1.740000e+00 0.000000e+00 0.000000e+00
1.750000e+00 0.000000e+00 0.000000e+00
1.760000e+00 0.000000e+00 0.000000e+00
1.770000e+00 0.000000e+00 0.000000e+00
1.780000e+00 0.000000e+00 0.000000e+00
1.790000e+00 0.000000e+00 0.000000e+00
1.800000e+00 0.000000e+00 0.000000e+00
1.810000e+00 0.000000e+00 0.000000e+00
1.820000e+00 0.000000e+00 0.000000e+00
1.830000e+00 0.000000e+00 0.000000e+00
1.840000e+00 0.000000e+00 0.000000e+00
1.850000e+00 0.000000e+00 0.000000e+00
1.860000e+00 0.000000e+00 0.000000e+00
1.870000e+00 0.000000e+00 0.000000e+00
1.880000e+00 0.000000e+00 0.000000e+00
1.890000e+00 0.000000e+00 0.000000e+00
1.900000e+00 0.000000e+00 0.000000e+00
1.910000e+00 0.000000e+00 0.000000e+00
1.920000e+00 0.000000e+00 0.000000e+00
1.930000e+00 0.000000e+00 0.000000e+00
1.940000e+00 0.000000e+00 0.000000e+00
1.950000e+00 0.000000e+00 0.000000e+00
1.960000e+00 0.000000e+00 0.000000e+00
1.970000e+00 0.000000e+00 0.000000e+00
1.980000e+00 0.000000e+00 0.000000e+00
1.990000e+00 0.000000e+00 0.000000e+00
2.000000e+00 0.000000e+00 0.000000e+00
2.010000e+00 0.000000e+00 0.000000e+00
2.020000e+00 0.000000e+00 0.000000e+00
2.030000e+00 0.000000e+00 0.000000e+00
2.040000e+00 0.000000e+00 0.000000e+00
2.050000e+00 0.000000e+00 0.000000e+00
2.060000e+00 0.000000e+00 0.000000e+00
2.070000e+00 0.000000e+00 0.000000e+00
2.080000e+00 0.000000e+00 0.000000e+00
2.090000e+00 0.000000e+00 0.000000e+00
2.100000e+00 0.000000e+00 0.000000e+00
2.110000e+00 0.000000e+00 0.000000e+00
2.120000e+00 0.000000e+00 0.000000e+00
2.130000e+00 0.000000e+00 0.000000e+00
2.140000e+00 0.000000e+00 0.000000e+00
2.150000e+00 0.000000e+00 0.000000e+00
2.160000e+00 0.000000e+00 0.000000e+00
2.170000e+00 0.000000e+00 0.000000e+00
2.180000e+00 0.000000e+00 0.000000e+00
2.190000e+00 0.000000e+00 0.000000e+00
2.200000e+00 0.000000e+00 0.000000e+00
2.210000e+00 0.000000e+00 0.000000e+00
2.220000e+00 0.000000e+00 0.000000e+00
2.230000e+00 0.000000e+00 0.000000e+00
2.240000e+00 0.000000e+00 0.000000e+00
2.250000e+00 0.000000e+00 0.000000e+00
2.260000e+00 0.000000e+00 0.000000e+00
2.270000e+00 0.000000e+00 0.000000e+00
2.280000e+00 0.000000e+00 0.000000e+00
2.290000e+00 0.000000e+00 0.000000e+00
2.300000e+00 0.000000e+00 0.000000e+00
2.310000e+00 0.000000e+00 0.000000e+00
2.320000e+00 0.000000e+00 0.000000e+00
2.330000e+00 0.000000e+00 0.000000e+00
2.340000e+00 0.000000e+00 0.000000e+00
2.350000e+00 0.000000e+00 0.000000e+00
2.360000e+00 0.000000e+00 0.000000e+00
2.370000e+00 0.000000e+00 0.000000e+00
2.380000e+00 0.000000e+00 0.000000e+00
2.390000e+00 0.000000e+00 0.000000e+00
2.400000e+00 0.000000e+00 0.000000e+00
2.410000e+00 0.000000e+00 0.000000e+00
2.420000e+00 0.000000e+00 0.000000e+00
2.430000e+00 0.000000e+00 0.000000e+00
2.440000e+00 0.000000e+00 0.000000e+00
2.450000e+00 0.000000e+00 0.000000e+00
2.460000e+00 0.000000e+00 0.000000e+00
2.470000e+00 0.000000e+00 0.000000e+00
2.480000e+00 0.000000e+00 0.000000e+00
2.490000e+00 0.000000e+00 0.000000e+00
2.500000e+00 0.000000e+00 0.000000e+00
2.510000e+00 0.000000e+00 0.000000e+00
2.520000e+00 0.000000e+00 0.000000e+00
2.530000e+00 0.000000e+00 0.000000e+00
[...]
POINT_DATA 501
SCALARS vm float 1
LOOKUP_TABLE default
1.307938e+00
1.308247e+00
1.308861e+00
1.309775e+00
1.310977e+00
1.312481e+00
1.314200e+00
1.316122e+00
1.318250e+00
1.320581e+00
1.323089e+00
1.325774e+00
1.328633e+00
1.331648e+00
1.334817e+00
1.338137e+00
1.341594e+00
1.345185e+00
1.348909e+00
1.352750e+00
1.356710e+00
1.360785e+00
1.364961e+00
1.369241e+00
1.373622e+00
1.378089e+00
1.382648e+00
1.387293e+00
1.392012e+00
1.396813e+00
1.401686e+00
1.406624e+00
1.411634e+00
1.416702e+00
1.421833e+00
1.427024e+00
1.432261e+00
1.437556e+00
1.442902e+00
1.448288e+00
1.453723e+00
1.459201e+00
1.464714e+00
1.470272e+00
1.475859e+00
1.481485e+00
1.487146e+00
1.492831e+00
1.498551e+00
1.504299e+00
1.510068e+00
1.515868e+00
1.521688e+00
1.527531e+00
1.533399e+00
1.539280e+00
1.545185e+00
1.551110e+00
1.557045e+00
1.563001e+00
1.568973e+00
1.574953e+00
1.580953e+00
1.586960e+00
1.592982e+00
1.599019e+00
1.605058e+00
1.611112e+00
1.617177e+00
1.623245e+00
1.629326e+00
1.635410e+00
1.641503e+00
1.647607e+00
1.653709e+00
1.659822e+00
1.665942e+00
1.672060e+00
1.678188e+00
1.684320e+00
1.690452e+00
1.696593e+00
1.702730e+00
1.708875e+00
1.715025e+00
1.721170e+00
1.727323e+00
1.733478e+00
1.739629e+00
1.745789e+00
1.751944e+00
1.758103e+00
1.764267e+00
1.770423e+00
1.776586e+00
1.782751e+00
1.788910e+00
1.795075e+00
1.801237e+00
1.807399e+00
1.813566e+00
1.819725e+00
1.825889e+00
1.832055e+00
1.838213e+00
1.844377e+00
1.850540e+00
1.856698e+00
1.862861e+00
1.869017e+00
1.875177e+00
1.881339e+00
1.887492e+00
1.893650e+00
1.899808e+00
1.905959e+00
1.912116e+00
1.918267e+00
1.924419e+00
1.930574e+00
1.936720e+00
1.942870e+00
1.949022e+00
1.955165e+00
1.961314e+00
1.967458e+00
1.973601e+00
1.979748e+00
1.985886e+00
1.992028e+00
1.998172e+00
2.004307e+00
2.010447e+00
2.016586e+00
2.022719e+00
2.028858e+00
2.034988e+00
2.041122e+00
2.047258e+00
2.053385e+00
2.059518e+00
2.065650e+00
2.071775e+00
2.077906e+00
2.084030e+00
2.090156e+00
2.096285e+00
2.102405e+00
2.108530e+00
2.114656e+00
2.120774e+00
2.126898e+00
2.133017e+00
2.139136e+00
2.145259e+00
2.151373e+00
2.157492e+00
2.163612e+00
2.169725e+00
2.175843e+00
2.181959e+00
2.188071e+00
2.194188e+00
2.200298e+00
2.206411e+00
2.212528e+00
2.218635e+00
2.224748e+00
2.230862e+00
2.236969e+00
2.243082e+00
2.249189e+00
2.255298e+00
2.261411e+00
2.267515e+00
2.273624e+00
2.279735e+00
2.285839e+00
2.291948e+00
2.298054e+00
2.304159e+00
2.310269e+00
2.316371e+00
2.322478e+00
2.328588e+00
2.334689e+00
2.340796e+00
2.346903e+00
2.353004e+00
2.359112e+00
2.365213e+00
2.371318e+00
2.377427e+00
2.383526e+00
2.389632e+00
2.395739e+00
2.401839e+00
2.407946e+00
2.414048e+00
2.420151e+00
2.426259e+00
2.432359e+00
2.438464e+00
2.444571e+00
2.450671e+00
2.456778e+00
2.462881e+00
2.468984e+00
2.475092e+00
2.481192e+00
2.487297e+00
2.493406e+00
2.499506e+00
2.505613e+00
2.511719e+00
2.517821e+00
2.523929e+00
2.530031e+00
2.536137e+00
2.542247e+00
2.548348e+00
2.554456e+00
2.560564e+00
2.566667e+00
2.572777e+00
2.578881e+00
2.584987e+00
2.591099e+00
2.597202e+00
2.603311e+00
2.609422e+00
2.615526e+00
2.621637e+00
2.627745e+00
2.633852e+00
2.639965e+00
2.646071e+00
2.652181e+00
2.658295e+00
2.664401e+00
2.670514e+00
2.676627e+00
2.682734e+00
2.688849e+00
2.694958e+00
2.701070e+00
2.707187e+00
2.713295e+00
2.719409e+00
2.725526e+00
2.731635e+00
2.737752e+00
2.743864e+00
2.749979e+00
2.756098e+00
2.762208e+00
2.768326e+00
2.774445e+00
2.780557e+00
2.786676e+00
2.792793e+00
2.798908e+00
2.805030e+00
2.811144e+00
2.817263e+00
2.823385e+00
2.829500e+00
2.835621e+00
2.841743e+00
2.847859e+00
2.853983e+00
2.860100e+00
2.866222e+00
2.872347e+00
2.878464e+00
2.884588e+00
2.890713e+00
2.896831e+00
2.902957e+00
2.909078e+00
2.915201e+00
2.921329e+00
2.927449e+00
2.933575e+00
2.939703e+00
2.945823e+00
2.951951e+00
2.958077e+00
2.964200e+00
2.970330e+00
2.976452e+00
2.982579e+00
2.988710e+00
2.994833e+00
3.000962e+00
3.007091e+00
3.013215e+00
3.019346e+00
3.025471e+00
3.031599e+00
3.037732e+00
3.043856e+00
3.049986e+00
3.056117e+00
3.062242e+00
3.068374e+00
3.074501e+00
3.080629e+00
3.086763e+00
3.092888e+00
3.099018e+00
3.105151e+00
3.111276e+00
3.117407e+00
3.123537e+00
3.129663e+00
3.135796e+00
3.141921e+00
3.148050e+00
3.154183e+00
3.160307e+00
3.166437e+00
3.172567e+00
3.178691e+00
3.184822e+00
3.190946e+00
3.197073e+00
3.203204e+00
3.209326e+00
3.215453e+00
3.221581e+00
3.227702e+00
3.233829e+00
3.239951e+00
3.246073e+00
3.252200e+00
3.258318e+00
3.264440e+00
3.270564e+00
3.276679e+00
3.282801e+00
3.288919e+00
3.295033e+00
3.301153e+00
3.307264e+00
3.313378e+00
3.319495e+00
3.325602e+00
3.331714e+00
3.337826e+00
3.343929e+00
3.350039e+00
3.356140e+00
3.362243e+00
3.368349e+00
3.374444e+00
3.380543e+00
3.386642e+00
3.392732e+00
3.398827e+00
3.404915e+00
3.411001e+00
3.417091e+00
3.423170e+00
3.429251e+00
3.435332e+00
3.441403e+00
3.447478e+00
3.453548e+00
3.459611e+00
3.465678e+00
3.471734e+00
3.477791e+00
3.483849e+00
3.489893e+00
3.495941e+00
3.501985e+00
3.508019e+00
3.514056e+00
3.520082e+00
3.526106e+00
3.532131e+00
3.538141e+00
3.544153e+00
3.550161e+00
3.556156e+00
3.562154e+00
3.568140e+00
3.574121e+00
3.580102e+00
3.586068e+00
3.592032e+00
3.597993e+00
3.603938e+00
3.609883e+00
3.615819e+00
3.621742e+00
3.627665e+00
3.633572e+00
3.639475e+00
3.645373e+00
3.651253e+00
3.657129e+00
3.662997e+00
3.668848e+00
3.674697e+00
3.680528e+00
3.686351e+00
3.692167e+00
3.697963e+00
3.703752e+00
3.709531e+00
3.715289e+00
3.721041e+00
3.726775e+00
3.732495e+00
3.738206e+00
3.743893e+00
3.749570e+00
3.755234e+00
3.760873e+00
3.766502e+00
3.772112e+00
3.777699e+00
3.783276e+00
3.788825e+00
3.794358e+00
3.799875e+00
3.805362e+00
3.810834e+00
3.816284e+00
3.821705e+00
3.827109e+00
3.832483e+00
3.837834e+00
3.843164e+00
3.848458e+00
3.853731e+00
3.858977e+00
3.864187e+00
3.869374e+00
3.874525e+00
3.879646e+00
3.884739e+00
3.889790e+00
3.894811e+00
3.899800e+00
3.904744e+00
3.909657e+00
3.914530e+00
3.919358e+00
3.924154e+00
3.928899e+00
3.933604e+00
3.938270e+00
3.942880e+00
3.947449e+00
3.951971e+00
3.956436e+00
3.960858e+00
3.965220e+00
3.969530e+00
3.973790e+00
3.977984e+00
3.982124e+00
3.986205e+00
3.990217e+00
3.994172e+00
3.998058e+00
4.001874e+00
4.005628e+00
4.009301e+00
4.012906e+00
4.016439e+00
4.019884e+00
4.023257e+00
4.026547e+00
4.029746e+00
4.032866e+00
4.035888e+00
4.038821e+00
4.041663e+00
4.044397e+00
4.047036e+00
4.049570e+00
4.051988e+00
4.054301e+00
4.056494e+00
4.058562e+00
4.060512e+00
4.062325e+00
4.064002e+00
4.065543e+00
4.066939e+00
4.068171e+00
4.069237e+00
4.070145e+00
4.070891e+00
4.071457e+00
4.071839e+00
4.072031e+00
