# vtk DataFile Version 3.0
Monodomain MVF
ASCII
DATASET POLYDATA
POINTS 501 float
0.000000e+00 0.000000e+00 0.000000e+00
1.000000e-02 0.000000e+00 0.000000e+00
2.000000e-02 0.000000e+00 0.000000e+00
3.000000e-02 0.000000e+00 0.000000e+00
4.000000e-02 0.000000e+00 0.000000e+00
5.000000e-02 0.000000e+00 0.000000e+00
6.000000e-02 0.000000e+00 0.000000e+00
7.000000e-02 0.000000e+00 0.000000e+00
8.000000e-02 0.000000e+00 0.000000e+00
9.000000e-02 0.000000e+00 0.000000e+00
1.000000e-01 0.000000e+00 0.000000e+00
1.100000e-01 0.000000e+00 0.000000e+00
1.200000e-01 0.000000e+00 0.000000e+00
1.300000e-01 0.000000e+00 0.000000e+00
1.400000e-01 0.000000e+00 0.000000e+00
1.500000e-01 0.000000e+00 0.000000e+00
1.600000e-01 0.000000e+00 0.000000e+00
1.700000e-01 0.000000e+00 0.000000e+00
1.800000e-01 0.000000e+00 0.000000e+00
1.900000e-01 0.000000e+00 0.000000e+00
2.000000e-01 0.000000e+00 0.000000e+00
2.100000e-01 0.000000e+00 0.000000e+00
2.200000e-01 0.000000e+00 0.000000e+00
2.300000e-01 0.000000e+00 0.000000e+00
2.400000e-01 0.000000e+00 0.000000e+00
2.500000e-01 0.000000e+00 0.000000e+00
2.600000e-01 0.000000e+00 0.000000e+00
2.700000e-01 0.000000e+00 0.000000e+00
2.800000e-01 0.000000e+00 0.000000e+00
2.900000e-01 0.000000e+00 0.000000e+00
3.000000e-01 0.000000e+00 0.000000e+00
3.100000e-01 0.000000e+00 0.000000e+00
3.200000e-01 0.000000e+00 0.000000e+00
3.300000e-01 0.000000e+00 0.000000e+00
3.400000e-01 0.000000e+00 0.000000e+00
3.500000e-01 0.000000e+00 0.000000e+00
3.600000e-01 0.000000e+00 0.000000e+00
3.700000e-01 0.000000e+00 0.000000e+00
3.800000e-01 0.000000e+00 0.000000e+00
3.900000e-01 0.000000e+00 0.000000e+00
4.000000e-01 0.000000e+00 0.000000e+00
4.100000e-01 0.000000e+00 0.000000e+00
4.200000e-01 0.000000e+00 0.000000e+00
4.300000e-01 0.000000e+00 0.000000e+00
4.400000e-01 0.000000e+00 0.000000e+00
4.500000e-01 0.000000e+00 0.000000e+00
4.600000e-01 0.000000e+00 0.000000e+00
4.700000e-01 0.000000e+00 0.000000e+00
4.800000e-01 0.000000e+00 0.000000e+00
4.900000e-01 0.000000e+00 0.000000e+00
5.000000e-01 0.000000e+00 0.000000e+00
5.100000e-01 0.000000e+00 0.000000e+00
5.200000e-01 0.000000e+00 0.000000e+00
5.300000e-01 0.000000e+00 0.000000e+00
5.400000e-01 0.000000e+00 0.000000e+00
5.500000e-01 0.000000e+00 0.000000e+00
5.600000e-01 0.000000e+00 0.000000e+00
5.700000e-01 0.000000e+00 0.000000e+00
5.800000e-01 0.000000e+00 0.000000e+00
5.900000e-01 0.000000e+00 0.000000e+00
6.000000e-01 0.000000e+00 0.000000e+00
6.100000e-01 0.000000e+00 0.000000e+00
6.200000e-01 0.000000e+00 0.000000e+00
6.300000e-01 0.000000e+00 0.000000e+00
6.400000e-01 0.000000e+00 0.000000e+00
6.500000e-01 0.000000e+00 0.000000e+00
6.600000e-01 0.000000e+00 0.000000e+00
6.700000e-01 0.000000e+00 0.000000e+00
6.800000e-01 0.000000e+00 0.000000e+00
6.900000e-01 0.000000e+00 0.000000e+00
7.000000e-01 0.000000e+00 0.000000e+00
7.100000e-01 0.000000e+00 0.000000e+00
7.200000e-01 0.000000e+00 0.000000e+00
7.300000e-01 0.000000e+00 0.000000e+00
7.400000e-01 0.000000e+00 0.000000e+00
7.500000e-01 0.000000e+00 0.000000e+00
7.600000e-01 0.000000e+00 0.000000e+00
7.700000e-01 0.000000e+00 0.000000e+00
7.800000e-01 0.000000e+00 0.000000e+00
7.900000e-01 0.000000e+00 0.000000e+00
8.000000e-01 0.000000e+00 0.000000e+00
8.100000e-01 0.000000e+00 0.000000e+00
8.200000e-01 0.000000e+00 0.000000e+00
8.300000e-01 0.000000e+00 0.000000e+00
8.400000e-01 0.000000e+00 0.000000e+00
8.500000e-01 0.000000e+00 0.000000e+00
8.600000e-01 0.000000e+00 0.000000e+00
8.700000e-01 0.000000e+00 0.000000e+00
8.800000e-01 0.000000e+00 0.000000e+00
8.900000e-01 0.000000e+00 0.000000e+00
9.000000e-01 0.000000e+00 0.000000e+00
9.100000e-01 0.000000e+00 0.000000e+00
9.200000e-01 0.000000e+00 0.000000e+00
9.300000e-01 0.000000e+00 0.000000e+00
9.400000e-01 0.000000e+00 0.000000e+00
9.500000e-01 0.000000e+00 0.000000e+00
9.600000e-01 0.000000e+00 0.000000e+00
9.700000e-01 0.000000e+00 0.000000e+00
9.800000e-01 0.000000e+00 0.000000e+00
9.900000e-01 0.000000e+00 0.000000e+00
1.000000e+00 0.000000e+00 0.000000e+00
1.010000e+00 0.000000e+00 0.000000e+00
1.020000e+00 0.000000e+00 0.000000e+00
1.030000e+00 0.000000e+00 0.000000e+00
1.040000e+00 0.000000e+00 0.000000e+00
1.050000e+00 0.000000e+00 0.000000e+00
1.060000e+00 0.000000e+00 0.000000e+00
1.070000e+00 0.000000e+00 0.000000e+00
1.080000e+00 0.000000e+00 0.000000e+00
1.090000e+00 0.000000e+00 0.000000e+00
1.100000e+00 0.000000e+00 0.000000e+00
1.110000e+00 0.000000e+00 0.000000e+00
1.120000e+00 0.000000e+00 0.000000e+00
1.130000e+00 0.000000e+00 0.000000e+00
1.140000e+00 0.000000e+00 0.000000e+00
1.150000e+00 0.000000e+00 0.000000e+00
1.160000e+00 0.000000e+00 0.000000e+00
1.170000e+00 0.000000e+00 0.000000e+00
1.180000e+00 0.000000e+00 0.000000e+00
1.190000e+00 0.000000e+00 0.000000e+00
1.200000e+00 0.000000e+00 0.000000e+00
1.210000e+00 0.000000e+00 0.000000e+00
1.220000e+00 0.000000e+00 0.000000e+00
1.230000e+00 0.000000e+00 0.000000e+00
1.240000e+00 0.000000e+00 0.000000e+00
1.250000e+00 0.000000e+00 0.000000e+00
1.260000e+00 0.000000e+00 0.000000e+00
1.270000e+00 0.000000e+00 0.000000e+00
1.280000e+00 0.000000e+00 0.000000e+00
1.290000e+00 0.000000e+00 0.000000e+00
1.300000e+00 0.000000e+00 0.000000e+00
1.310000e+00 0.000000e+00 0.000000e+00
1.320000e+00 0.000000e+00 0.000000e+00
1.330000e+00 0.000000e+00 0.000000e+00
1.340000e+00 0.000000e+00 0.000000e+00
1.350000e+00 0.000000e+00 0.000000e+00
1.360000e+00 0.000000e+00 0.000000e+00
1.370000e+00 0.000000e+00 0.000000e+00
1.380000e+00 0.000000e+00 0.000000e+00
1.390000e+00 0.000000e+00 0.000000e+00
1.400000e+00 0.000000e+00 0.000000e+00
1.410000e+00 0.000000e+00 0.000000e+00
1.420000e+00 0.000000e+00 0.000000e+00
1.430000e+00 0.000000e+00 0.000000e+00
1.440000e+00 0.000000e+00 0.000000e+00
1.450000e+00 0.000000e+00 0.000000e+00
1.460000e+00 0.000000e+00 0.000000e+00
1.470000e+00 0.000000e+00 0.000000e+00
1.480000e+00 0.000000e+00 0.000000e+00
1.490000e+00 0.000000e+00 0.000000e+00
1.500000e+00 0.000000e+00 0.000000e+00
1.510000e+00 0.000000e+00 0.000000e+00
1.520000e+00 0.000000e+00 0.000000e+00
1.530000e+00 0.000000e+00 0.000000e+00
1.540000e+00 0.000000e+00 0.000000e+00
1.550000e+00 0.000000e+00 0.000000e+00
1.560000e+00 0.000000e+00 0.000000e+00
1.570000e+00 0.000000e+00 0.000000e+00
1.580000e+00 0.000000e+00 0.000000e+00
1.590000e+00 0.000000e+00 0.000000e+00
1.600000e+00 0.000000e+00 0.000000e+00
1.610000e+00 0.000000e+00 0.000000e+00
1.620000e+00 0.000000e+00 0.000000e+00
1.630000e+00 0.000000e+00 0.000000e+00
1.640000e+00 0.000000e+00 0.000000e+00
1.650000e+00 0.000000e+00 0.000000e+00
1.660000e+00 0.000000e+00 0.000000e+00
1.670000e+00 0.000000e+00 0.000000e+00
1.680000e+00 0.000000e+00 0.000000e+00
1.690000e+00 0.000000e+00 0.000000e+00
1.700000e+00 0.000000e+00 0.000000e+00
1.710000e+00 0.000000e+00 0.000000e+00
1.720000e+00 0.000000e+00 0.000000e+00
1.730000e+00 0.000000e+00 0.000000e+00
1.740000e+00 0.000000e+00 0.000000e+00
1.750000e+00 0.000000e+00 0.000000e+00
1.760000e+00 0.000000e+00 0.000000e+00
1.770000e+00 0.000000e+00 0.000000e+00
1.780000e+00 0.000000e+00 0.000000e+00
1.790000e+00 0.000000e+00 0.000000e+00
1.800000e+00 0.000000e+00 0.000000e+00
1.810000e+00 0.000000e+00 0.000000e+00
1.820000e+00 0.000000e+00 0.000000e+00
1.830000e+00 0.000000e+00 0.000000e+00
1.840000e+00 0.000000e+00 0.000000e+00
1.850000e+00 0.000000e+00 0.000000e+00
1.860000e+00 0.000000e+00 0.000000e+00
1.870000e+00 0.000000e+00 0.000000e+00
1.880000e+00 0.000000e+00 0.000000e+00
1.890000e+00 0.000000e+00 0.000000e+00
1.900000e+00 0.000000e+00 0.000000e+00
1.910000e+00 0.000000e+00 0.000000e+00
1.920000e+00 0.000000e+00 0.000000e+00
1.930000e+00 0.000000e+00 0.000000e+00
1.940000e+00 0.000000e+00 0.000000e+00
1.950000e+00 0.000000e+00 0.000000e+00
1.960000e+00 0.000000e+00 0.000000e+00
1.970000e+00 0.000000e+00 0.000000e+00
1.980000e+00 0.000000e+00 0.000000e+00
1.990000e+00 0.000000e+00 0.000000e+00
2.000000e+00 0.000000e+00 0.000000e+00
2.010000e+00 0.000000e+00 0.000000e+00
2.020000e+00 0.000000e+00 0.000000e+00
2.030000e+00 0.000000e+00 0.000000e+00
2.040000e+00 0.000000e+00 0.000000e+00
2.050000e+00 0.000000e+00 0.000000e+00
2.060000e+00 0.000000e+00 0.000000e+00
2.070000e+00 0.000000e+00 0.000000e+00
2.080000e+00 0.000000e+00 0.000000e+00
2.090000e+00 0.000000e+00 0.000000e+00
2.100000e+00 0.000000e+00 0.000000e+00
2.110000e+00 0.000000e+00 0.000000e+00
2.120000e+00 0.000000e+00 0.000000e+00
2.130000e+00 0.000000e+00 0.000000e+00
2.140000e+00 0.000000e+00 0.000000e+00
2.150000e+00 0.000000e+00 0.000000e+00
2.160000e+00 0.000000e+00 0.000000e+00
2.170000e+00 0.000000e+00 0.000000e+00
2.180000e+00 0.000000e+00 0.000000e+00
2.190000e+00 0.000000e+00 0.000000e+00
2.200000e+00 0.000000e+00 0.000000e+00
2.210000e+00 0.000000e+00 0.000000e+00
2.220000e+00 0.000000e+00 0.000000e+00
2.230000e+00 0.000000e+00 0.000000e+00
2.240000e+00 0.000000e+00 0.000000e+00
2.250000e+00 0.000000e+00 0.000000e+00
2.260000e+00 0.000000e+00 0.000000e+00
2.270000e+00 0.000000e+00 0.000000e+00
2.280000e+00 0.000000e+00 0.000000e+00
2.290000e+00 0.000000e+00 0.000000e+00
2.300000e+00 0.000000e+00 0.000000e+00
2.310000e+00 0.000000e+00 0.000000e+00
2.320000e+00 0.000000e+00 0.000000e+00
2.330000e+00 0.000000e+00 0.000000e+00
2.340000e+00 0.000000e+00 0.000000e+00
2.350000e+00 0.000000e+00 0.000000e+00
2.360000e+00 0.000000e+00 0.000000e+00
2.370000e+00 0.000000e+00 0.000000e+00
2.380000e+00 0.000000e+00 0.000000e+00
2.390000e+00 0.000000e+00 0.000000e+00
2.400000e+00 0.000000e+00 0.000000e+00
2.410000e+00 0.000000e+00 0.000000e+00
2.420000e+00 0.000000e+00 0.000000e+00
2.430000e+00 0.000000e+00 0.000000e+00
2.440000e+00 0.000000e+00 0.000000e+00
2.450000e+00 0.000000e+00 0.000000e+00
2.460000e+00 0.000000e+00 0.000000e+00
2.470000e+00 0.000000e+00 0.000000e+00
2.480000e+00 0.000000e+00 0.000000e+00
2.490000e+00 0.000000e+00 0.000000e+00
2.500000e+00 0.000000e+00 0.000000e+00
2.510000e+00 0.000000e+00 0.000000e+00
2.520000e+00 0.000000e+00 0.000000e+00
2.530000e+00 0.000000e+00 0.000000e+00
[...]
POINT_DATA 501
SCALARS vm float 1
LOOKUP_TABLE default
-1.580832e+01
-1.580810e+01
-1.580768e+01
-1.580704e+01
-1.580621e+01
-1.580517e+01
-1.580398e+01
-1.580263e+01
-1.580113e+01
-1.579948e+01
-1.579769e+01
-1.579577e+01
-1.579372e+01
-1.579154e+01
-1.578924e+01
-1.578683e+01
-1.578431e+01
-1.578168e+01
-1.577895e+01
-1.577612e+01
-1.577319e+01
-1.577017e+01
-1.576707e+01
-1.576388e+01
-1.576061e+01
-1.575727e+01
-1.575385e+01
-1.575036e+01
-1.574680e+01
-1.574317e+01
-1.573948e+01
-1.573573e+01
-1.573192e+01
-1.572806e+01
-1.572414e+01
-1.572017e+01
-1.571615e+01
-1.571208e+01
-1.570796e+01
-1.570380e+01
-1.569960e+01
-1.569536e+01
-1.569108e+01
-1.568676e+01
-1.568241e+01
-1.567802e+01
-1.567359e+01
-1.566914e+01
-1.566466e+01
-1.566014e+01
-1.565560e+01
-1.565103e+01
-1.564643e+01
-1.564181e+01
-1.563717e+01
-1.563250e+01
-1.562781e+01
-1.562310e+01
-1.561837e+01
-1.561361e+01
-1.560884e+01
-1.560406e+01
-1.559925e+01
-1.559443e+01
-1.558959e+01
-1.558474e+01
-1.557988e+01
-1.557499e+01
-1.557010e+01
-1.556519e+01
-1.556027e+01
-1.555534e+01
-1.555040e+01
-1.554545e+01
-1.554048e+01
-1.553551e+01
-1.553053e+01
-1.552554e+01
-1.552054e+01
-1.551553e+01
-1.551051e+01
-1.550549e+01
-1.550046e+01
-1.549542e+01
-1.549037e+01
-1.548532e+01
-1.548026e+01
-1.547520e+01
-1.547013e+01
-1.546506e+01
-1.545998e+01
-1.545490e+01
-1.544981e+01
-1.544472e+01
-1.543962e+01
-1.543452e+01
-1.542942e+01
-1.542431e+01
-1.541920e+01
-1.541409e+01
-1.540897e+01
-1.540385e+01
-1.539873e+01
-1.539360e+01
-1.538848e+01
-1.538335e+01
-1.537822e+01
-1.537309e+01
-1.536795e+01
-1.536281e+01
-1.535767e+01
-1.535253e+01
-1.534739e+01
-1.534225e+01
-1.533711e+01
-1.533196e+01
-1.532681e+01
-1.532167e+01
-1.531652e+01
-1.531137e+01
-1.530622e+01
-1.530107e+01
-1.529592e+01
-1.529077e+01
-1.528562e+01
-1.528046e+01
-1.527531e+01
-1.527016e+01
-1.526500e+01
-1.525985e+01
-1.525469e+01
-1.524954e+01
-1.524439e+01
-1.523923e+01
-1.523408e+01
-1.522892e+01
-1.522377e+01
-1.521862e+01
-1.521346e+01
-1.520831e+01
-1.520315e+01
-1.519800e+01
-1.519285e+01
-1.518769e+01
-1.518254e+01
-1.517739e+01
-1.517224e+01
-1.516709e+01
-1.516194e+01
-1.515678e+01
-1.515163e+01
-1.514648e+01
-1.514134e+01
-1.513619e+01
-1.513104e+01
-1.512589e+01
-1.512074e+01
-1.511559e+01
-1.511045e+01
-1.510530e+01
-1.510016e+01
-1.509501e+01
-1.508987e+01
-1.508473e+01
-1.507958e+01
-1.507444e+01
-1.506930e+01
-1.506416e+01
-1.505902e+01
-1.505388e+01
-1.504874e+01
-1.504360e+01
-1.503846e+01
-1.503333e+01
-1.502819e+01
-1.502306e+01
-1.501792e+01
-1.501279e+01
-1.500765e+01
-1.500252e+01
-1.499739e+01
-1.499225e+01
-1.498713e+01
-1.498199e+01
-1.497686e+01
-1.497174e+01
-1.496661e+01
-1.496148e+01
-1.495635e+01
-1.495123e+01
-1.494610e+01
-1.494098e+01
-1.493585e+01
-1.493073e+01
-1.492561e+01
-1.492048e+01
-1.491536e+01
-1.491024e+01
-1.490512e+01
-1.490000e+01
-1.489489e+01
-1.488977e+01
-1.488465e+01
-1.487953e+01
-1.487442e+01
-1.486930e+01
-1.486419e+01
-1.485908e+01
-1.485396e+01
-1.484885e+01
-1.484374e+01
-1.483863e+01
-1.483352e+01
-1.482841e+01
-1.482330e+01
-1.481819e+01
-1.481308e+01
-1.480798e+01
-1.480287e+01
-1.479777e+01
-1.479266e+01
-1.478756e+01
-1.478245e+01
-1.477735e+01
-1.477225e+01
-1.476715e+01
-1.476205e+01
-1.475695e+01
-1.475185e+01
-1.474675e+01
-1.474165e+01
-1.473656e+01
-1.473146e+01
-1.472636e+01
-1.472127e+01
-1.471617e+01
-1.471108e+01
-1.470599e+01
-1.470090e+01
-1.469581e+01
-1.469071e+01
-1.468562e+01
-1.468053e+01
-1.467544e+01
-1.467036e+01
-1.466527e+01
-1.466018e+01
-1.465510e+01
-1.465001e+01
-1.464493e+01
-1.463985e+01
-1.463476e+01
-1.462968e+01
-1.462460e+01
-1.461952e+01
-1.461444e+01
-1.460936e+01
-1.460428e+01
-1.459920e+01
-1.459413e+01
-1.458905e+01
-1.458397e+01
-1.457890e+01
-1.457383e+01
-1.456875e+01
-1.456368e+01
-1.455861e+01
-1.455354e+01
-1.454847e+01
-1.454340e+01
-1.453833e+01
-1.453327e+01
-1.452820e+01
-1.452313e+01
-1.451807e+01
-1.451301e+01
-1.450795e+01
-1.450288e+01
-1.449782e+01
-1.449277e+01
-1.448771e+01
-1.448265e+01
-1.447759e+01
-1.447254e+01
-1.446748e+01
-1.446243e+01
-1.445738e+01
-1.445232e+01
-1.444728e+01
-1.444223e+01
-1.443718e+01
-1.443213e+01
-1.442708e+01
-1.442204e+01
-1.441700e+01
-1.441196e+01
-1.440692e+01
-1.440188e+01
-1.439684e+01
-1.439180e+01
-1.438677e+01
-1.438173e+01
-1.437670e+01
-1.437167e+01
-1.436664e+01
-1.436161e+01
-1.435658e+01
-1.435156e+01
-1.434653e+01
-1.434151e+01
-1.433649e+01
-1.433147e+01
-1.432646e+01
-1.432144e+01
-1.431643e+01
-1.431142e+01
-1.430641e+01
-1.430140e+01
-1.429639e+01
-1.429139e+01
-1.428639e+01
-1.428139e+01
-1.427639e+01
-1.427139e+01
-1.426640e+01
-1.426141e+01
-1.425642e+01
-1.425143e+01
-1.424645e+01
-1.424147e+01
-1.423649e+01
-1.423151e+01
-1.422653e+01
-1.422156e+01
-1.421660e+01
-1.421163e+01
-1.420667e+01
-1.420171e+01
-1.419675e+01
-1.419179e+01
-1.418684e+01
-1.418189e+01
-1.417695e+01
-1.417201e+01
-1.416707e+01
-1.416214e+01
-1.415720e+01
-1.415228e+01
-1.414735e+01
-1.414243e+01
-1.413752e+01
-1.413260e+01
-1.412770e+01
-1.412279e+01
-1.411789e+01
-1.411300e+01
-1.410811e+01
-1.410322e+01
-1.409834e+01
-1.409347e+01
-1.408860e+01
-1.408373e+01
-1.407887e+01
-1.407401e+01
-1.406916e+01
-1.406432e+01
-1.405948e+01
-1.405464e+01
-1.404982e+01
-1.404500e+01
-1.404018e+01
-1.403537e+01
-1.403057e+01
-1.402577e+01
-1.402099e+01
-1.401620e+01
-1.401143e+01
-1.400666e+01
-1.400190e+01
-1.399715e+01
-1.399241e+01
-1.398767e+01
-1.398294e+01
-1.397822e+01
-1.397351e+01
-1.396881e+01
-1.396411e+01
-1.395943e+01
-1.395476e+01
-1.395009e+01
-1.394544e+01
-1.394079e+01
-1.393616e+01
-1.393153e+01
-1.392692e+01
-1.392232e+01
-1.391773e+01
-1.391315e+01
-1.390858e+01
-1.390402e+01
-1.389948e+01
-1.389495e+01
-1.389043e+01
-1.388593e+01
-1.388144e+01
-1.387696e+01
-1.387250e+01
-1.386806e+01
-1.386362e+01
-1.385921e+01
-1.385480e+01
-1.385042e+01
-1.384605e+01
-1.384169e+01
-1.383736e+01
-1.383304e+01
-1.382874e+01
-1.382446e+01
-1.382019e+01
-1.381595e+01
-1.381172e+01
-1.380752e+01
-1.380333e+01
-1.379917e+01
-1.379503e+01
-1.379091e+01
-1.378681e+01
-1.378273e+01
-1.377868e+01
-1.377465e+01
-1.377065e+01
-1.376667e+01
-1.376271e+01
-1.375879e+01
-1.375488e+01
-1.375101e+01
-1.374716e+01
-1.374334e+01
-1.373955e+01
-1.373580e+01
-1.373206e+01
-1.372837e+01
-1.372470e+01
-1.372106e+01
-1.371746e+01
-1.371389e+01
-1.371035e+01
-1.370686e+01
-1.370339e+01
-1.369996e+01
-1.369657e+01
-1.369322e+01
-1.368991e+01
-1.368663e+01
-1.368340e+01
-1.368020e+01
-1.367705e+01
-1.367394e+01
-1.367088e+01
-1.366786e+01
-1.366489e+01
-1.366196e+01
-1.365908e+01
-1.365625e+01
-1.365346e+01
-1.365073e+01
-1.364805e+01
-1.364542e+01
-1.364284e+01
-1.364032e+01
-1.363785e+01
-1.363544e+01
-1.363309e+01
-1.363079e+01
-1.362856e+01
-1.362638e+01
-1.362427e+01
-1.362222e+01
-1.362023e+01
-1.361831e+01
-1.361646e+01
-1.361467e+01
-1.361296e+01
-1.361131e+01
-1.360974e+01
-1.360825e+01
-1.360682e+01
-1.360548e+01
-1.360422e+01
-1.360303e+01
-1.360194e+01
-1.360092e+01
-1.360000e+01
-1.359917e+01
-1.359843e+01
-1.359779e+01
-1.359725e+01
-1.359682e+01
-1.359649e+01
-1.359626e+01
-1.359615e+01
