# vtk DataFile Version 3.0
Monodomain MVF
ASCII
DATASET POLYDATA
POINTS 501 float
0.000000e+00 0.000000e+00 0.000000e+00
1.000000e-02 0.000000e+00 0.000000e+00
2.000000e-02 0.000000e+00 0.000000e+00
3.000000e-02 0.000000e+00 0.000000e+00
4.000000e-02 0.000000e+00 0.000000e+00
5.000000e-02 0.000000e+00 0.000000e+00
6.000000e-02 0.000000e+00 0.000000e+00
7.000000e-02 0.000000e+00 0.000000e+00
8.000000e-02 0.000000e+00 0.000000e+00
9.000000e-02 0.000000e+00 0.000000e+00
1.000000e-01 0.000000e+00 0.000000e+00
1.100000e-01 0.000000e+00 0.000000e+00
1.200000e-01 0.000000e+00 0.000000e+00
1.300000e-01 0.000000e+00 0.000000e+00
1.400000e-01 0.000000e+00 0.000000e+00
1.500000e-01 0.000000e+00 0.000000e+00
1.600000e-01 0.000000e+00 0.000000e+00
1.700000e-01 0.000000e+00 0.000000e+00
1.800000e-01 0.000000e+00 0.000000e+00
1.900000e-01 0.000000e+00 0.000000e+00
2.000000e-01 0.000000e+00 0.000000e+00
2.100000e-01 0.000000e+00 0.000000e+00
2.200000e-01 0.000000e+00 0.000000e+00
2.300000e-01 0.000000e+00 0.000000e+00
2.400000e-01 0.000000e+00 0.000000e+00
2.500000e-01 0.000000e+00 0.000000e+00
2.600000e-01 0.000000e+00 0.000000e+00
2.700000e-01 0.000000e+00 0.000000e+00
2.800000e-01 0.000000e+00 0.000000e+00
2.900000e-01 0.000000e+00 0.000000e+00
3.000000e-01 0.000000e+00 0.000000e+00
3.100000e-01 0.000000e+00 0.000000e+00
3.200000e-01 0.000000e+00 0.000000e+00
3.300000e-01 0.000000e+00 0.000000e+00
3.400000e-01 0.000000e+00 0.000000e+00
3.500000e-01 0.000000e+00 0.000000e+00
3.600000e-01 0.000000e+00 0.000000e+00
3.700000e-01 0.000000e+00 0.000000e+00
3.800000e-01 0.000000e+00 0.000000e+00
3.900000e-01 0.000000e+00 0.000000e+00
4.000000e-01 0.000000e+00 0.000000e+00
4.100000e-01 0.000000e+00 0.000000e+00
4.200000e-01 0.000000e+00 0.000000e+00
4.300000e-01 0.000000e+00 0.000000e+00
4.400000e-01 0.000000e+00 0.000000e+00
4.500000e-01 0.000000e+00 0.000000e+00
4.600000e-01 0.000000e+00 0.000000e+00
4.700000e-01 0.000000e+00 0.000000e+00
4.800000e-01 0.000000e+00 0.000000e+00
4.900000e-01 0.000000e+00 0.000000e+00
5.000000e-01 0.000000e+00 0.000000e+00
5.100000e-01 0.000000e+00 0.000000e+00
5.200000e-01 0.000000e+00 0.000000e+00
5.300000e-01 0.000000e+00 0.000000e+00
5.400000e-01 0.000000e+00 0.000000e+00
5.500000e-01 0.000000e+00 0.000000e+00
5.600000e-01 0.000000e+00 0.000000e+00
5.700000e-01 0.000000e+00 0.000000e+00
5.800000e-01 0.000000e+00 0.000000e+00
5.900000e-01 0.000000e+00 0.000000e+00
6.000000e-01 0.000000e+00 0.000000e+00
6.100000e-01 0.000000e+00 0.000000e+00
6.200000e-01 0.000000e+00 0.000000e+00
6.300000e-01 0.000000e+00 0.000000e+00
6.400000e-01 0.000000e+00 0.000000e+00
6.500000e-01 0.000000e+00 0.000000e+00
6.600000e-01 0.000000e+00 0.000000e+00
6.700000e-01 0.000000e+00 0.000000e+00
6.800000e-01 0.000000e+00 0.000000e+00
6.900000e-01 0.000000e+00 0.000000e+00
7.000000e-01 0.000000e+00 0.000000e+00
7.100000e-01 0.000000e+00 0.000000e+00
7.200000e-01 0.000000e+00 0.000000e+00
7.300000e-01 0.000000e+00 0.000000e+00
7.400000e-01 0.000000e+00 0.000000e+00
7.500000e-01 0.000000e+00 0.000000e+00
7.600000e-01 0.000000e+00 0.000000e+00
7.700000e-01 0.000000e+00 0.000000e+00
7.800000e-01 0.000000e+00 0.000000e+00
7.900000e-01 0.000000e+00 0.000000e+00
8.000000e-01 0.000000e+00 0.000000e+00
8.100000e-01 0.000000e+00 0.000000e+00
8.200000e-01 0.000000e+00 0.000000e+00
8.300000e-01 0.000000e+00 0.000000e+00
8.400000e-01 0.000000e+00 0.000000e+00
8.500000e-01 0.000000e+00 0.000000e+00
8.600000e-01 0.000000e+00 0.000000e+00
8.700000e-01 0.000000e+00 0.000000e+00
8.800000e-01 0.000000e+00 0.000000e+00
8.900000e-01 0.000000e+00 0.000000e+00
9.000000e-01 0.000000e+00 0.000000e+00
9.100000e-01 0.000000e+00 0.000000e+00
9.200000e-01 0.000000e+00 0.000000e+00
9.300000e-01 0.000000e+00 0.000000e+00
9.400000e-01 0.000000e+00 0.000000e+00
9.500000e-01 0.000000e+00 0.000000e+00
9.600000e-01 0.000000e+00 0.000000e+00
9.700000e-01 0.000000e+00 0.000000e+00
9.800000e-01 0.000000e+00 0.000000e+00
9.900000e-01 0.000000e+00 0.000000e+00
1.000000e+00 0.000000e+00 0.000000e+00
1.010000e+00 0.000000e+00 0.000000e+00
1.020000e+00 0.000000e+00 0.000000e+00
1.030000e+00 0.000000e+00 0.000000e+00
1.040000e+00 0.000000e+00 0.000000e+00
1.050000e+00 0.000000e+00 0.000000e+00
1.060000e+00 0.000000e+00 0.000000e+00
1.070000e+00 0.000000e+00 0.000000e+00
1.080000e+00 0.000000e+00 0.000000e+00
1.090000e+00 0.000000e+00 0.000000e+00
1.100000e+00 0.000000e+00 0.000000e+00
1.110000e+00 0.000000e+00 0.000000e+00
1.120000e+00 0.000000e+00 0.000000e+00
1.130000e+00 0.000000e+00 0.000000e+00
1.140000e+00 0.000000e+00 0.000000e+00
1.150000e+00 0.000000e+00 0.000000e+00
1.160000e+00 0.000000e+00 0.000000e+00
1.170000e+00 0.000000e+00 0.000000e+00
1.180000e+00 0.000000e+00 0.000000e+00
1.190000e+00 0.000000e+00 0.000000e+00
1.200000e+00 0.000000e+00 0.000000e+00
1.210000e+00 0.000000e+00 0.000000e+00
1.220000e+00 0.000000e+00 0.000000e+00
1.230000e+00 0.000000e+00 0.000000e+00
1.240000e+00 0.000000e+00 0.000000e+00
1.250000e+00 0.000000e+00 0.000000e+00
1.260000e+00 0.000000e+00 0.000000e+00
1.270000e+00 0.000000e+00 0.000000e+00
1.280000e+00 0.000000e+00 0.000000e+00
1.290000e+00 0.000000e+00 0.000000e+00
1.300000e+00 0.000000e+00 0.000000e+00
1.310000e+00 0.000000e+00 0.000000e+00
1.320000e+00 0.000000e+00 0.000000e+00
1.330000e+00 0.000000e+00 0.000000e+00
1.340000e+00 0.000000e+00 0.000000e+00
1.350000e+00 0.000000e+00 0.000000e+00
1.360000e+00 0.000000e+00 0.000000e+00
1.370000e+00 0.000000e+00 0.000000e+00
1.380000e+00 0.000000e+00 0.000000e+00
1.390000e+00 0.000000e+00 0.000000e+00
1.400000e+00 0.000000e+00 0.000000e+00
1.410000e+00 0.000000e+00 0.000000e+00
1.420000e+00 0.000000e+00 0.000000e+00
1.430000e+00 0.000000e+00 0.000000e+00
1.440000e+00 0.000000e+00 0.000000e+00
1.450000e+00 0.000000e+00 0.000000e+00
1.460000e+00 0.000000e+00 0.000000e+00
1.470000e+00 0.000000e+00 0.000000e+00
1.480000e+00 0.000000e+00 0.000000e+00
1.490000e+00 0.000000e+00 0.000000e+00
1.500000e+00 0.000000e+00 0.000000e+00
1.510000e+00 0.000000e+00 0.000000e+00
1.520000e+00 0.000000e+00 0.000000e+00
1.530000e+00 0.000000e+00 0.000000e+00
1.540000e+00 0.000000e+00 0.000000e+00
1.550000e+00 0.000000e+00 0.000000e+00
1.560000e+00 0.000000e+00 0.000000e+00
1.570000e+00 0.000000e+00 0.000000e+00
1.580000e+00 0.000000e+00 0.000000e+00
1.590000e+00 0.000000e+00 0.000000e+00
1.600000e+00 0.000000e+00 0.000000e+00
1.610000e+00 0.000000e+00 0.000000e+00
1.620000e+00 0.000000e+00 0.000000e+00
1.630000e+00 0.000000e+00 0.000000e+00
1.640000e+00 0.000000e+00 0.000000e+00
1.650000e+00 0.000000e+00 0.000000e+00
1.660000e+00 0.000000e+00 0.000000e+00
1.670000e+00 0.000000e+00 0.000000e+00
1.680000e+00 0.000000e+00 0.000000e+00
1.690000e+00 0.000000e+00 0.000000e+00
1.700000e+00 0.000000e+00 0.000000e+00
1.710000e+00 0.000000e+00 0.000000e+00
1.720000e+00 0.000000e+00 0.000000e+00
1.730000e+00 0.000000e+00 0.000000e+00
1.740000e+00 0.000000e+00 0.000000e+00
1.750000e+00 0.000000e+00 0.000000e+00
1.760000e+00 0.000000e+00 0.000000e+00
1.770000e+00 0.000000e+00 0.000000e+00
1.780000e+00 0.000000e+00 0.000000e+00
1.790000e+00 0.000000e+00 0.000000e+00
1.800000e+00 0.000000e+00 0.000000e+00
1.810000e+00 0.000000e+00 0.000000e+00
1.820000e+00 0.000000e+00 0.000000e+00
1.830000e+00 0.000000e+00 0.000000e+00
1.840000e+00 0.000000e+00 0.000000e+00
1.850000e+00 0.000000e+00 0.000000e+00
1.860000e+00 0.000000e+00 0.000000e+00
1.870000e+00 0.000000e+00 0.000000e+00
1.880000e+00 0.000000e+00 0.000000e+00
1.890000e+00 0.000000e+00 0.000000e+00
1.900000e+00 0.000000e+00 0.000000e+00
1.910000e+00 0.000000e+00 0.000000e+00
1.920000e+00 0.000000e+00 0.000000e+00
1.930000e+00 0.000000e+00 0.000000e+00
1.940000e+00 0.000000e+00 0.000000e+00
1.950000e+00 0.000000e+00 0.000000e+00
1.960000e+00 0.000000e+00 0.000000e+00
1.970000e+00 0.000000e+00 0.000000e+00
1.980000e+00 0.000000e+00 0.000000e+00
1.990000e+00 0.000000e+00 0.000000e+00
2.000000e+00 0.000000e+00 0.000000e+00
2.010000e+00 0.000000e+00 0.000000e+00
2.020000e+00 0.000000e+00 0.000000e+00
2.030000e+00 0.000000e+00 0.000000e+00
2.040000e+00 0.000000e+00 0.000000e+00
2.050000e+00 0.000000e+00 0.000000e+00
2.060000e+00 0.000000e+00 0.000000e+00
2.070000e+00 0.000000e+00 0.000000e+00
2.080000e+00 0.000000e+00 0.000000e+00
2.090000e+00 0.000000e+00 0.000000e+00
2.100000e+00 0.000000e+00 0.000000e+00
2.110000e+00 0.000000e+00 0.000000e+00
2.120000e+00 0.000000e+00 0.000000e+00
2.130000e+00 0.000000e+00 0.000000e+00
2.140000e+00 0.000000e+00 0.000000e+00
2.150000e+00 0.000000e+00 0.000000e+00
2.160000e+00 0.000000e+00 0.000000e+00
2.170000e+00 0.000000e+00 0.000000e+00
2.180000e+00 0.000000e+00 0.000000e+00
2.190000e+00 0.000000e+00 0.000000e+00
2.200000e+00 0.000000e+00 0.000000e+00
2.210000e+00 0.000000e+00 0.000000e+00
2.220000e+00 0.000000e+00 0.000000e+00
2.230000e+00 0.000000e+00 0.000000e+00
2.240000e+00 0.000000e+00 0.000000e+00
2.250000e+00 0.000000e+00 0.000000e+00
2.260000e+00 0.000000e+00 0.000000e+00
2.270000e+00 0.000000e+00 0.000000e+00
2.280000e+00 0.000000e+00 0.000000e+00
2.290000e+00 0.000000e+00 0.000000e+00
2.300000e+00 0.000000e+00 0.000000e+00
2.310000e+00 0.000000e+00 0.000000e+00
2.320000e+00 0.000000e+00 0.000000e+00
2.330000e+00 0.000000e+00 0.000000e+00
2.340000e+00 0.000000e+00 0.000000e+00
2.350000e+00 0.000000e+00 0.000000e+00
2.360000e+00 0.000000e+00 0.000000e+00
2.370000e+00 0.000000e+00 0.000000e+00
2.380000e+00 0.000000e+00 0.000000e+00
2.390000e+00 0.000000e+00 0.000000e+00
2.400000e+00 0.000000e+00 0.000000e+00
2.410000e+00 0.000000e+00 0.000000e+00
2.420000e+00 0.000000e+00 0.000000e+00
2.430000e+00 0.000000e+00 0.000000e+00
2.440000e+00 0.000000e+00 0.000000e+00
2.450000e+00 0.000000e+00 0.000000e+00
2.460000e+00 0.000000e+00 0.000000e+00
2.470000e+00 0.000000e+00 0.000000e+00
2.480000e+00 0.000000e+00 0.000000e+00
2.490000e+00 0.000000e+00 0.000000e+00
2.500000e+00 0.000000e+00 0.000000e+00
2.510000e+00 0.000000e+00 0.000000e+00
2.520000e+00 0.000000e+00 0.000000e+00
2.530000e+00 0.000000e+00 0.000000e+00
[...]
POINT_DATA 501
SCALARS vm float 1
LOOKUP_TABLE default
-6.307094e+00
-6.306831e+00
-6.306307e+00
-6.305528e+00
-6.304505e+00
-6.303225e+00
-6.301762e+00
-6.300120e+00
-6.298302e+00
-6.296311e+00
-6.294163e+00
-6.291862e+00
-6.289412e+00
-6.286825e+00
-6.284103e+00
-6.281252e+00
-6.278281e+00
-6.275191e+00
-6.271988e+00
-6.268681e+00
-6.265270e+00
-6.261760e+00
-6.258161e+00
-6.254469e+00
-6.250692e+00
-6.246837e+00
-6.242902e+00
-6.238892e+00
-6.234815e+00
-6.230669e+00
-6.226458e+00
-6.222188e+00
-6.217858e+00
-6.213474e+00
-6.209035e+00
-6.204545e+00
-6.200011e+00
-6.195427e+00
-6.190799e+00
-6.186133e+00
-6.181424e+00
-6.176678e+00
-6.171898e+00
-6.167082e+00
-6.162236e+00
-6.157357e+00
-6.152447e+00
-6.147514e+00
-6.142550e+00
-6.137561e+00
-6.132552e+00
-6.127517e+00
-6.122462e+00
-6.117386e+00
-6.112289e+00
-6.107178e+00
-6.102046e+00
-6.096897e+00
-6.091736e+00
-6.086557e+00
-6.081365e+00
-6.076162e+00
-6.070943e+00
-6.065717e+00
-6.060476e+00
-6.055224e+00
-6.049966e+00
-6.044696e+00
-6.039416e+00
-6.034132e+00
-6.028837e+00
-6.023537e+00
-6.018229e+00
-6.012913e+00
-6.007596e+00
-6.002269e+00
-5.996937e+00
-5.991604e+00
-5.986263e+00
-5.980918e+00
-5.975572e+00
-5.970219e+00
-5.964867e+00
-5.959508e+00
-5.954146e+00
-5.948785e+00
-5.943419e+00
-5.938051e+00
-5.932683e+00
-5.927311e+00
-5.921941e+00
-5.916566e+00
-5.911189e+00
-5.905816e+00
-5.900438e+00
-5.895059e+00
-5.889682e+00
-5.884302e+00
-5.878924e+00
-5.873544e+00
-5.868163e+00
-5.862786e+00
-5.857404e+00
-5.852023e+00
-5.846645e+00
-5.841264e+00
-5.835884e+00
-5.830507e+00
-5.825127e+00
-5.819751e+00
-5.814373e+00
-5.808994e+00
-5.803620e+00
-5.798243e+00
-5.792866e+00
-5.787494e+00
-5.782118e+00
-5.776748e+00
-5.771375e+00
-5.766001e+00
-5.760633e+00
-5.755262e+00
-5.749892e+00
-5.744526e+00
-5.739157e+00
-5.733793e+00
-5.728427e+00
-5.723060e+00
-5.717700e+00
-5.712336e+00
-5.706972e+00
-5.701614e+00
-5.696253e+00
-5.690893e+00
-5.685537e+00
-5.680178e+00
-5.674825e+00
-5.669469e+00
-5.664112e+00
-5.658761e+00
-5.653408e+00
-5.648055e+00
-5.642706e+00
-5.637355e+00
-5.632008e+00
-5.626659e+00
-5.621310e+00
-5.615966e+00
-5.610619e+00
-5.605273e+00
-5.599931e+00
-5.594586e+00
-5.589245e+00
-5.583903e+00
-5.578560e+00
-5.573223e+00
-5.567882e+00
-5.562541e+00
-5.557206e+00
-5.551867e+00
-5.546529e+00
-5.541195e+00
-5.535858e+00
-5.530526e+00
-5.525191e+00
-5.519855e+00
-5.514525e+00
-5.509191e+00
-5.503858e+00
-5.498529e+00
-5.493196e+00
-5.487868e+00
-5.482538e+00
-5.477207e+00
-5.471881e+00
-5.466551e+00
-5.461222e+00
-5.455897e+00
-5.450568e+00
-5.445243e+00
-5.439917e+00
-5.434589e+00
-5.429266e+00
-5.423940e+00
-5.418613e+00
-5.413291e+00
-5.407966e+00
-5.402641e+00
-5.397320e+00
-5.391995e+00
-5.386674e+00
-5.381351e+00
-5.376026e+00
-5.370707e+00
-5.365384e+00
-5.360061e+00
-5.354741e+00
-5.349418e+00
-5.344099e+00
-5.338778e+00
-5.333454e+00
-5.328137e+00
-5.322815e+00
-5.317493e+00
-5.312175e+00
-5.306853e+00
-5.301534e+00
-5.296214e+00
-5.290892e+00
-5.285575e+00
-5.280254e+00
-5.274933e+00
-5.269616e+00
-5.264295e+00
-5.258974e+00
-5.253656e+00
-5.248335e+00
-5.243018e+00
-5.237698e+00
-5.232376e+00
-5.227059e+00
-5.221738e+00
-5.216417e+00
-5.211099e+00
-5.205778e+00
-5.200460e+00
-5.195140e+00
-5.189818e+00
-5.184501e+00
-5.179179e+00
-5.173857e+00
-5.168539e+00
-5.163218e+00
-5.157898e+00
-5.152578e+00
-5.147255e+00
-5.141937e+00
-5.136615e+00
-5.131292e+00
-5.125974e+00
-5.120651e+00
-5.115329e+00
-5.110009e+00
-5.104685e+00
-5.099366e+00
-5.094044e+00
-5.088719e+00
-5.083400e+00
-5.078076e+00
-5.072752e+00
-5.067432e+00
-5.062107e+00
-5.056786e+00
-5.051463e+00
-5.046137e+00
-5.040816e+00
-5.035491e+00
-5.030166e+00
-5.024844e+00
-5.019518e+00
-5.014194e+00
-5.008871e+00
-5.003544e+00
-4.998222e+00
-4.992896e+00
-4.987568e+00
-4.982246e+00
-4.976919e+00
-4.971592e+00
-4.966269e+00
-4.960940e+00
-4.955617e+00
-4.950290e+00
-4.944961e+00
-4.939637e+00
-4.934309e+00
-4.928981e+00
-4.923656e+00
-4.918327e+00
-4.913002e+00
-4.907675e+00
-4.902345e+00
-4.897020e+00
-4.891691e+00
-4.886361e+00
-4.881036e+00
-4.875706e+00
-4.870378e+00
-4.865052e+00
-4.859721e+00
-4.854396e+00
-4.849067e+00
-4.843736e+00
-4.838411e+00
-4.833081e+00
-4.827752e+00
-4.822426e+00
-4.817095e+00
-4.811769e+00
-4.806441e+00
-4.801110e+00
-4.795785e+00
-4.790456e+00
-4.785126e+00
-4.779801e+00
-4.774471e+00
-4.769146e+00
-4.763818e+00
-4.758489e+00
-4.753164e+00
-4.747837e+00
-4.742508e+00
-4.737185e+00
-4.731857e+00
-4.726531e+00
-4.721208e+00
-4.715880e+00
-4.710558e+00
-4.705234e+00
-4.699907e+00
-4.694587e+00
-4.689263e+00
-4.683939e+00
-4.678620e+00
-4.673296e+00
-4.667978e+00
-4.662658e+00
-4.657336e+00
-4.652020e+00
-4.646701e+00
-4.641382e+00
-4.636068e+00
-4.630751e+00
-4.625438e+00
-4.620125e+00
-4.614809e+00
-4.609500e+00
-4.604189e+00
-4.598877e+00
-4.593572e+00
-4.588263e+00
-4.582957e+00
-4.577654e+00
-4.572348e+00
-4.567049e+00
-4.561748e+00
-4.556447e+00
-4.551153e+00
-4.545856e+00
-4.540561e+00
-4.535272e+00
-4.529980e+00
-4.524694e+00
-4.519408e+00
-4.514121e+00
-4.508842e+00
-4.503562e+00
-4.498283e+00
-4.493011e+00
-4.487737e+00
-4.482469e+00
-4.477202e+00
-4.471935e+00
-4.466677e+00
-4.461418e+00
-4.456161e+00
-4.450912e+00
-4.445662e+00
-4.440416e+00
-4.435176e+00
-4.429936e+00
-4.424705e+00
-4.419474e+00
-4.414245e+00
-4.409027e+00
-4.403808e+00
-4.398593e+00
-4.393387e+00
-4.388181e+00
-4.382985e+00
-4.377791e+00
-4.372599e+00
-4.367419e+00
-4.362241e+00
-4.357067e+00
-4.351904e+00
-4.346742e+00
-4.341590e+00
-4.336443e+00
-4.331300e+00
-4.326170e+00
-4.321043e+00
-4.315922e+00
-4.310813e+00
-4.305708e+00
-4.300612e+00
-4.295527e+00
-4.290446e+00
-4.285379e+00
-4.280318e+00
-4.275263e+00
-4.270225e+00
-4.265192e+00
-4.260168e+00
-4.255160e+00
-4.250157e+00
-4.245170e+00
-4.240192e+00
-4.235223e+00
-4.230272e+00
-4.225329e+00
-4.220399e+00
-4.215486e+00
-4.210582e+00
-4.205696e+00
-4.200823e+00
-4.195961e+00
-4.191121e+00
-4.186292e+00
-4.181478e+00
-4.176686e+00
-4.171906e+00
-4.167145e+00
-4.162404e+00
-4.157678e+00
-4.152976e+00
-4.148290e+00
-4.143621e+00
-4.138980e+00
-4.134355e+00
-4.129752e+00
-4.125175e+00
-4.120617e+00
-4.116087e+00
-4.111578e+00
-4.107092e+00
-4.102637e+00
-4.098205e+00
-4.093799e+00
-4.089425e+00
-4.085076e+00
-4.080758e+00
-4.076470e+00
-4.072210e+00
-4.067986e+00
-4.063792e+00
-4.059629e+00
-4.055507e+00
-4.051414e+00
-4.047359e+00
-4.043343e+00
-4.039361e+00
-4.035423e+00
-4.031521e+00
-4.027659e+00
-4.023844e+00
-4.020067e+00
-4.016335e+00
-4.012652e+00
-4.009011e+00
-4.005422e+00
-4.001879e+00
-3.998383e+00
-3.994944e+00
-3.991554e+00
-3.988217e+00
-3.984940e+00
-3.981714e+00
-3.978550e+00
-3.975444e+00
-3.972396e+00
-3.969416e+00
-3.966496e+00
-3.963639e+00
-3.960856e+00
-3.958136e+00
-3.955488e+00
-3.952915e+00
-3.950412e+00
-3.947990e+00
-3.945642e+00
-3.943373e+00
-3.941192e+00
-3.939092e+00
-3.937078e+00
-3.935158e+00
-3.933326e+00
-3.931591e+00
-3.929956e+00
-3.928419e+00
-3.926990e+00
-3.925671e+00
-3.924460e+00
-3.923365e+00
-3.922397e+00
-3.921562e+00
-3.920853e+00
-3.920272e+00
-3.919832e+00
-3.919535e+00
-3.919385e+00
