# vtk DataFile Version 3.0
Monodomain MVF
ASCII
DATASET POLYDATA
POINTS 501 float
0.000000e+00 0.000000e+00 0.000000e+00
1.000000e-02 0.000000e+00 0.000000e+00
2.000000e-02 0.000000e+00 0.000000e+00
3.000000e-02 0.000000e+00 0.000000e+00
4.000000e-02 0.000000e+00 0.000000e+00
5.000000e-02 0.000000e+00 0.000000e+00
6.000000e-02 0.000000e+00 0.000000e+00
7.000000e-02 0.000000e+00 0.000000e+00
8.000000e-02 0.000000e+00 0.000000e+00
9.000000e-02 0.000000e+00 0.000000e+00
1.000000e-01 0.000000e+00 0.000000e+00
1.100000e-01 0.000000e+00 0.000000e+00
1.200000e-01 0.000000e+00 0.000000e+00
1.300000e-01 0.000000e+00 0.000000e+00
1.400000e-01 0.000000e+00 0.000000e+00
1.500000e-01 0.000000e+00 0.000000e+00
1.600000e-01 0.000000e+00 0.000000e+00
1.700000e-01 0.000000e+00 0.000000e+00
1.800000e-01 0.000000e+00 0.000000e+00
1.900000e-01 0.000000e+00 0.000000e+00
2.000000e-01 0.000000e+00 0.000000e+00
2.100000e-01 0.000000e+00 0.000000e+00
2.200000e-01 0.000000e+00 0.000000e+00
2.300000e-01 0.000000e+00 0.000000e+00
2.400000e-01 0.000000e+00 0.000000e+00
2.500000e-01 0.000000e+00 0.000000e+00
2.600000e-01 0.000000e+00 0.000000e+00
2.700000e-01 0.000000e+00 0.000000e+00
2.800000e-01 0.000000e+00 0.000000e+00
2.900000e-01 0.000000e+00 0.000000e+00
3.000000e-01 0.000000e+00 0.000000e+00
3.100000e-01 0.000000e+00 0.000000e+00
3.200000e-01 0.000000e+00 0.000000e+00
3.300000e-01 0.000000e+00 0.000000e+00
3.400000e-01 0.000000e+00 0.000000e+00
3.500000e-01 0.000000e+00 0.000000e+00
3.600000e-01 0.000000e+00 0.000000e+00
3.700000e-01 0.000000e+00 0.000000e+00
3.800000e-01 0.000000e+00 0.000000e+00
3.900000e-01 0.000000e+00 0.000000e+00
4.000000e-01 0.000000e+00 0.000000e+00
4.100000e-01 0.000000e+00 0.000000e+00
4.200000e-01 0.000000e+00 0.000000e+00
4.300000e-01 0.000000e+00 0.000000e+00
4.400000e-01 0.000000e+00 0.000000e+00
4.500000e-01 0.000000e+00 0.000000e+00
4.600000e-01 0.000000e+00 0.000000e+00
4.700000e-01 0.000000e+00 0.000000e+00
4.800000e-01 0.000000e+00 0.000000e+00
4.900000e-01 0.000000e+00 0.000000e+00
5.000000e-01 0.000000e+00 0.000000e+00
5.100000e-01 0.000000e+00 0.000000e+00
5.200000e-01 0.000000e+00 0.000000e+00
5.300000e-01 0.000000e+00 0.000000e+00
5.400000e-01 0.000000e+00 0.000000e+00
5.500000e-01 0.000000e+00 0.000000e+00
5.600000e-01 0.000000e+00 0.000000e+00
5.700000e-01 0.000000e+00 0.000000e+00
5.800000e-01 0.000000e+00 0.000000e+00
5.900000e-01 0.000000e+00 0.000000e+00
6.000000e-01 0.000000e+00 0.000000e+00
6.100000e-01 0.000000e+00 0.000000e+00
6.200000e-01 0.000000e+00 0.000000e+00
6.300000e-01 0.000000e+00 0.000000e+00
6.400000e-01 0.000000e+00 0.000000e+00
6.500000e-01 0.000000e+00 0.000000e+00
6.600000e-01 0.000000e+00 0.000000e+00
6.700000e-01 0.000000e+00 0.000000e+00
6.800000e-01 0.000000e+00 0.000000e+00
6.900000e-01 0.000000e+00 0.000000e+00
7.000000e-01 0.000000e+00 0.000000e+00
7.100000e-01 0.000000e+00 0.000000e+00
7.200000e-01 0.000000e+00 0.000000e+00
7.300000e-01 0.000000e+00 0.000000e+00
7.400000e-01 0.000000e+00 0.000000e+00
7.500000e-01 0.000000e+00 0.000000e+00
7.600000e-01 0.000000e+00 0.000000e+00
7.700000e-01 0.000000e+00 0.000000e+00
7.800000e-01 0.000000e+00 0.000000e+00
7.900000e-01 0.000000e+00 0.000000e+00
8.000000e-01 0.000000e+00 0.000000e+00
8.100000e-01 0.000000e+00 0.000000e+00
8.200000e-01 0.000000e+00 0.000000e+00
8.300000e-01 0.000000e+00 0.000000e+00
8.400000e-01 0.000000e+00 0.000000e+00
8.500000e-01 0.000000e+00 0.000000e+00
8.600000e-01 0.000000e+00 0.000000e+00
8.700000e-01 0.000000e+00 0.000000e+00
8.800000e-01 0.000000e+00 0.000000e+00
8.900000e-01 0.000000e+00 0.000000e+00
9.000000e-01 0.000000e+00 0.000000e+00
9.100000e-01 0.000000e+00 0.000000e+00
9.200000e-01 0.000000e+00 0.000000e+00
9.300000e-01 0.000000e+00 0.000000e+00
9.400000e-01 0.000000e+00 0.000000e+00
9.500000e-01 0.000000e+00 0.000000e+00
9.600000e-01 0.000000e+00 0.000000e+00
9.700000e-01 0.000000e+00 0.000000e+00
9.800000e-01 0.000000e+00 0.000000e+00
9.900000e-01 0.000000e+00 0.000000e+00
1.000000e+00 0.000000e+00 0.000000e+00
1.010000e+00 0.000000e+00 0.000000e+00
1.020000e+00 0.000000e+00 0.000000e+00
1.030000e+00 0.000000e+00 0.000000e+00
1.040000e+00 0.000000e+00 0.000000e+00
1.050000e+00 0.000000e+00 0.000000e+00
1.060000e+00 0.000000e+00 0.000000e+00
1.070000e+00 0.000000e+00 0.000000e+00
1.080000e+00 0.000000e+00 0.000000e+00
1.090000e+00 0.000000e+00 0.000000e+00
1.100000e+00 0.000000e+00 0.000000e+00
1.110000e+00 0.000000e+00 0.000000e+00
1.120000e+00 0.000000e+00 0.000000e+00
1.130000e+00 0.000000e+00 0.000000e+00
1.140000e+00 0.000000e+00 0.000000e+00
1.150000e+00 0.000000e+00 0.000000e+00
1.160000e+00 0.000000e+00 0.000000e+00
1.170000e+00 0.000000e+00 0.000000e+00
1.180000e+00 0.000000e+00 0.000000e+00
1.190000e+00 0.000000e+00 0.000000e+00
1.200000e+00 0.000000e+00 0.000000e+00
1.210000e+00 0.000000e+00 0.000000e+00
1.220000e+00 0.000000e+00 0.000000e+00
1.230000e+00 0.000000e+00 0.000000e+00
1.240000e+00 0.000000e+00 0.000000e+00
1.250000e+00 0.000000e+00 0.000000e+00
1.260000e+00 0.000000e+00 0.000000e+00
1.270000e+00 0.000000e+00 0.000000e+00
1.280000e+00 0.000000e+00 0.000000e+00
1.290000e+00 0.000000e+00 0.000000e+00
1.300000e+00 0.000000e+00 0.000000e+00
1.310000e+00 0.000000e+00 0.000000e+00
1.320000e+00 0.000000e+00 0.000000e+00
1.330000e+00 0.000000e+00 0.000000e+00
1.340000e+00 0.000000e+00 0.000000e+00
1.350000e+00 0.000000e+00 0.000000e+00
1.360000e+00 0.000000e+00 0.000000e+00
1.370000e+00 0.000000e+00 0.000000e+00
1.380000e+00 0.000000e+00 0.000000e+00
1.390000e+00 0.000000e+00 0.000000e+00
1.400000e+00 0.000000e+00 0.000000e+00
1.410000e+00 0.000000e+00 0.000000e+00
1.420000e+00 0.000000e+00 0.000000e+00
1.430000e+00 0.000000e+00 0.000000e+00
1.440000e+00 0.000000e+00 0.000000e+00
1.450000e+00 0.000000e+00 0.000000e+00
1.460000e+00 0.000000e+00 0.000000e+00
1.470000e+00 0.000000e+00 0.000000e+00
1.480000e+00 0.000000e+00 0.000000e+00
1.490000e+00 0.000000e+00 0.000000e+00
1.500000e+00 0.000000e+00 0.000000e+00
1.510000e+00 0.000000e+00 0.000000e+00
1.520000e+00 0.000000e+00 0.000000e+00
1.530000e+00 0.000000e+00 0.000000e+00
1.540000e+00 0.000000e+00 0.000000e+00
1.550000e+00 0.000000e+00 0.000000e+00
1.560000e+00 0.000000e+00 0.000000e+00
1.570000e+00 0.000000e+00 0.000000e+00
1.580000e+00 0.000000e+00 0.000000e+00
1.590000e+00 0.000000e+00 0.000000e+00
1.600000e+00 0.000000e+00 0.000000e+00
1.610000e+00 0.000000e+00 0.000000e+00
1.620000e+00 0.000000e+00 0.000000e+00
1.630000e+00 0.000000e+00 0.000000e+00
1.640000e+00 0.000000e+00 0.000000e+00
1.650000e+00 0.000000e+00 0.000000e+00
1.660000e+00 0.000000e+00 0.000000e+00
1.670000e+00 0.000000e+00 0.000000e+00
1.680000e+00 0.000000e+00 0.000000e+00
1.690000e+00 0.000000e+00 0.000000e+00
1.700000e+00 0.000000e+00 0.000000e+00
1.710000e+00 0.000000e+00 0.000000e+00
1.720000e+00 0.000000e+00 0.000000e+00
1.730000e+00 0.000000e+00 0.000000e+00
1.740000e+00 0.000000e+00 0.000000e+00
1.750000e+00 0.000000e+00 0.000000e+00
1.760000e+00 0.000000e+00 0.000000e+00
1.770000e+00 0.000000e+00 0.000000e+00
1.780000e+00 0.000000e+00 0.000000e+00
1.790000e+00 0.000000e+00 0.000000e+00
1.800000e+00 0.000000e+00 0.000000e+00
1.810000e+00 0.000000e+00 0.000000e+00
1.820000e+00 0.000000e+00 0.000000e+00
1.830000e+00 0.000000e+00 0.000000e+00
1.840000e+00 0.000000e+00 0.000000e+00
1.850000e+00 0.000000e+00 0.000000e+00
1.860000e+00 0.000000e+00 0.000000e+00
1.870000e+00 0.000000e+00 0.000000e+00
1.880000e+00 0.000000e+00 0.000000e+00
1.890000e+00 0.000000e+00 0.000000e+00
1.900000e+00 0.000000e+00 0.000000e+00
1.910000e+00 0.000000e+00 0.000000e+00
1.920000e+00 0.000000e+00 0.000000e+00
1.930000e+00 0.000000e+00 0.000000e+00
1.940000e+00 0.000000e+00 0.000000e+00
1.950000e+00 0.000000e+00 0.000000e+00
1.960000e+00 0.000000e+00 0.000000e+00
1.970000e+00 0.000000e+00 0.000000e+00
1.980000e+00 0.000000e+00 0.000000e+00
1.990000e+00 0.000000e+00 0.000000e+00
2.000000e+00 0.000000e+00 0.000000e+00
2.010000e+00 0.000000e+00 0.000000e+00
2.020000e+00 0.000000e+00 0.000000e+00
2.030000e+00 0.000000e+00 0.000000e+00
2.040000e+00 0.000000e+00 0.000000e+00
2.050000e+00 0.000000e+00 0.000000e+00
2.060000e+00 0.000000e+00 0.000000e+00
2.070000e+00 0.000000e+00 0.000000e+00
2.080000e+00 0.000000e+00 0.000000e+00
2.090000e+00 0.000000e+00 0.000000e+00
2.100000e+00 0.000000e+00 0.000000e+00
2.110000e+00 0.000000e+00 0.000000e+00
2.120000e+00 0.000000e+00 0.000000e+00
2.130000e+00 0.000000e+00 0.000000e+00
2.140000e+00 0.000000e+00 0.000000e+00
2.150000e+00 0.000000e+00 0.000000e+00
2.160000e+00 0.000000e+00 0.000000e+00
2.170000e+00 0.000000e+00 0.000000e+00
2.180000e+00 0.000000e+00 0.000000e+00
2.190000e+00 0.000000e+00 0.000000e+00
2.200000e+00 0.000000e+00 0.000000e+00
2.210000e+00 0.000000e+00 0.000000e+00
2.220000e+00 0.000000e+00 0.000000e+00
2.230000e+00 0.000000e+00 0.000000e+00
2.240000e+00 0.000000e+00 0.000000e+00
2.250000e+00 0.000000e+00 0.000000e+00
2.260000e+00 0.000000e+00 0.000000e+00
2.270000e+00 0.000000e+00 0.000000e+00
2.280000e+00 0.000000e+00 0.000000e+00
2.290000e+00 0.000000e+00 0.000000e+00
2.300000e+00 0.000000e+00 0.000000e+00
2.310000e+00 0.000000e+00 0.000000e+00
2.320000e+00 0.000000e+00 0.000000e+00
2.330000e+00 0.000000e+00 0.000000e+00
2.340000e+00 0.000000e+00 0.000000e+00
2.350000e+00 0.000000e+00 0.000000e+00
2.360000e+00 0.000000e+00 0.000000e+00
2.370000e+00 0.000000e+00 0.000000e+00
2.380000e+00 0.000000e+00 0.000000e+00
2.390000e+00 0.000000e+00 0.000000e+00
2.400000e+00 0.000000e+00 0.000000e+00
2.410000e+00 0.000000e+00 0.000000e+00
2.420000e+00 0.000000e+00 0.000000e+00
2.430000e+00 0.000000e+00 0.000000e+00
2.440000e+00 0.000000e+00 0.000000e+00
2.450000e+00 0.000000e+00 0.000000e+00
2.460000e+00 0.000000e+00 0.000000e+00
2.470000e+00 0.000000e+00 0.000000e+00
2.480000e+00 0.000000e+00 0.000000e+00
2.490000e+00 0.000000e+00 0.000000e+00
2.500000e+00 0.000000e+00 0.000000e+00
2.510000e+00 0.000000e+00 0.000000e+00
2.520000e+00 0.000000e+00 0.000000e+00
2.530000e+00 0.000000e+00 0.000000e+00
[...]
POINT_DATA 501
SCALARS vm float 1
LOOKUP_TABLE default
-5.766684e+01
-5.766669e+01
-5.766637e+01
-5.766590e+01
-5.766528e+01
-5.766449e+01
-5.766357e+01
-5.766250e+01
-5.766129e+01
-5.765994e+01
-5.765844e+01
-5.765681e+01
-5.765505e+01
-5.765315e+01
-5.765111e+01
-5.764894e+01
-5.764665e+01
-5.764422e+01
-5.764166e+01
-5.763898e+01
-5.763618e+01
-5.763324e+01
-5.763019e+01
-5.762702e+01
-5.762372e+01
-5.762031e+01
-5.761678e+01
-5.761313e+01
-5.760936e+01
-5.760549e+01
-5.760149e+01
-5.759739e+01
-5.759317e+01
-5.758884e+01
-5.758441e+01
-5.757986e+01
-5.757521e+01
-5.757045e+01
-5.756558e+01
-5.756061e+01
-5.755553e+01
-5.755035e+01
-5.754507e+01
-5.753968e+01
-5.753420e+01
-5.752861e+01
-5.752292e+01
-5.751714e+01
-5.751125e+01
-5.750527e+01
-5.749919e+01
-5.749301e+01
-5.748674e+01
-5.748038e+01
-5.747392e+01
-5.746737e+01
-5.746072e+01
-5.745398e+01
-5.744715e+01
-5.744023e+01
-5.743322e+01
-5.742612e+01
-5.741893e+01
-5.741165e+01
-5.740428e+01
-5.739683e+01
-5.738928e+01
-5.738166e+01
-5.737394e+01
-5.736615e+01
-5.735826e+01
-5.735030e+01
-5.734225e+01
-5.733411e+01
-5.732590e+01
-5.731760e+01
-5.730922e+01
-5.730077e+01
-5.729223e+01
-5.728361e+01
-5.727491e+01
-5.726614e+01
-5.725729e+01
-5.724835e+01
-5.723935e+01
-5.723026e+01
-5.722110e+01
-5.721187e+01
-5.720256e+01
-5.719317e+01
-5.718372e+01
-5.717418e+01
-5.716458e+01
-5.715490e+01
-5.714516e+01
-5.713534e+01
-5.712545e+01
-5.711549e+01
-5.710546e+01
-5.709536e+01
-5.708519e+01
-5.707495e+01
-5.706465e+01
-5.705428e+01
-5.704384e+01
-5.703334e+01
-5.702277e+01
-5.701213e+01
-5.700143e+01
-5.699067e+01
-5.697984e+01
-5.696895e+01
-5.695800e+01
-5.694698e+01
-5.693590e+01
-5.692477e+01
-5.691357e+01
-5.690231e+01
-5.689099e+01
-5.687961e+01
-5.686817e+01
-5.685667e+01
-5.684512e+01
-5.683351e+01
-5.682184e+01
-5.681012e+01
-5.679833e+01
-5.678650e+01
-5.677461e+01
-5.676266e+01
-5.675066e+01
-5.673861e+01
-5.672650e+01
-5.671434e+01
-5.670214e+01
-5.668987e+01
-5.667756e+01
-5.666520e+01
-5.665278e+01
-5.664032e+01
-5.662781e+01
-5.661524e+01
-5.660264e+01
-5.658998e+01
-5.657728e+01
-5.656452e+01
-5.655173e+01
-5.653888e+01
-5.652599e+01
-5.651306e+01
-5.650008e+01
-5.648706e+01
-5.647400e+01
-5.646089e+01
-5.644774e+01
-5.643455e+01
-5.642131e+01
-5.640804e+01
-5.639472e+01
-5.638137e+01
-5.636797e+01
-5.635454e+01
-5.634107e+01
-5.632756e+01
-5.631401e+01
-5.630042e+01
-5.628680e+01
-5.627314e+01
-5.625945e+01
-5.624572e+01
-5.623195e+01
-5.621815e+01
-5.620432e+01
-5.619045e+01
-5.617655e+01
-5.616262e+01
-5.614866e+01
-5.613466e+01
-5.612064e+01
-5.610658e+01
-5.609249e+01
-5.607837e+01
-5.606423e+01
-5.605005e+01
-5.603585e+01
-5.602162e+01
-5.600736e+01
-5.599308e+01
-5.597877e+01
-5.596443e+01
-5.595007e+01
-5.593568e+01
-5.592126e+01
-5.590683e+01
-5.589237e+01
-5.587788e+01
-5.586338e+01
-5.584885e+01
-5.583430e+01
-5.581973e+01
-5.580514e+01
-5.579053e+01
-5.577589e+01
-5.576124e+01
-5.574657e+01
-5.573188e+01
-5.571718e+01
-5.570245e+01
-5.568771e+01
-5.567295e+01
-5.565818e+01
-5.564339e+01
-5.562858e+01
-5.561376e+01
-5.559893e+01
-5.558408e+01
-5.556922e+01
-5.555434e+01
-5.553945e+01
-5.552455e+01
-5.550964e+01
-5.549472e+01
-5.547979e+01
-5.546485e+01
-5.544989e+01
-5.543493e+01
-5.541996e+01
-5.540498e+01
-5.539000e+01
-5.537500e+01
-5.536000e+01
-5.534499e+01
-5.532998e+01
-5.531496e+01
-5.529993e+01
-5.528490e+01
-5.526987e+01
-5.525483e+01
-5.523979e+01
-5.522475e+01
-5.520970e+01
-5.519466e+01
-5.517961e+01
-5.516456e+01
-5.514951e+01
-5.513446e+01
-5.511941e+01
-5.510436e+01
-5.508931e+01
-5.507426e+01
-5.505922e+01
-5.504418e+01
-5.502914e+01
-5.501410e+01
-5.499907e+01
-5.498405e+01
-5.496902e+01
-5.495401e+01
-5.493900e+01
-5.492399e+01
-5.490900e+01
-5.489401e+01
-5.487902e+01
-5.486405e+01
-5.484909e+01
-5.483413e+01
-5.481918e+01
-5.480425e+01
-5.478932e+01
-5.477441e+01
-5.475950e+01
-5.474461e+01
-5.472973e+01
-5.471486e+01
-5.470001e+01
-5.468517e+01
-5.467035e+01
-5.465554e+01
-5.464074e+01
-5.462596e+01
-5.461120e+01
-5.459645e+01
-5.458172e+01
-5.456700e+01
-5.455231e+01
-5.453763e+01
-5.452297e+01
-5.450834e+01
-5.449372e+01
-5.447912e+01
-5.446454e+01
-5.444998e+01
-5.443545e+01
-5.442094e+01
-5.440644e+01
-5.439198e+01
-5.437753e+01
-5.436311e+01
-5.434872e+01
-5.433435e+01
-5.432000e+01
-5.430568e+01
-5.429139e+01
-5.427712e+01
-5.426288e+01
-5.424867e+01
-5.423449e+01
-5.422034e+01
-5.420621e+01
-5.419211e+01
-5.417805e+01
-5.416401e+01
-5.415001e+01
-5.413604e+01
-5.412210e+01
-5.410819e+01
-5.409431e+01
-5.408047e+01
-5.406667e+01
-5.405289e+01
-5.403915e+01
-5.402545e+01
-5.401178e+01
-5.399815e+01
-5.398456e+01
-5.397100e+01
-5.395748e+01
-5.394400e+01
-5.393056e+01
-5.391716e+01
-5.390379e+01
-5.389047e+01
-5.387719e+01
-5.386395e+01
-5.385075e+01
-5.383759e+01
-5.382447e+01
-5.381140e+01
-5.379837e+01
-5.378539e+01
-5.377245e+01
-5.375955e+01
-5.374670e+01
-5.373389e+01
-5.372114e+01
-5.370843e+01
-5.369576e+01
-5.368315e+01
-5.367058e+01
-5.365806e+01
-5.364559e+01
-5.363317e+01
-5.362080e+01
-5.360849e+01
-5.359622e+01
-5.358400e+01
-5.357184e+01
-5.355973e+01
-5.354767e+01
-5.353567e+01
-5.352372e+01
-5.351182e+01
-5.349998e+01
-5.348820e+01
-5.347647e+01
-5.346480e+01
-5.345318e+01
-5.344162e+01
-5.343013e+01
-5.341869e+01
-5.340730e+01
-5.339598e+01
-5.338472e+01
-5.337352e+01
-5.336238e+01
-5.335130e+01
-5.334028e+01
-5.332932e+01
-5.331843e+01
-5.330760e+01
-5.329684e+01
-5.328613e+01
-5.327550e+01
-5.326493e+01
-5.325442e+01
-5.324398e+01
-5.323361e+01
-5.322330e+01
-5.321307e+01
-5.320289e+01
-5.319279e+01
-5.318276e+01
-5.317280e+01
-5.316291e+01
-5.315308e+01
-5.314333e+01
-5.313365e+01
-5.312404e+01
-5.311451e+01
-5.310504e+01
-5.309565e+01
-5.308634e+01
-5.307709e+01
-5.306792e+01
-5.305883e+01
-5.304981e+01
-5.304087e+01
-5.303201e+01
-5.302322e+01
-5.301451e+01
-5.300588e+01
-5.299732e+01
-5.298885e+01
-5.298045e+01
-5.297213e+01
-5.296390e+01
-5.295574e+01
-5.294766e+01
-5.293967e+01
-5.293175e+01
-5.292393e+01
-5.291618e+01
-5.290851e+01
-5.290093e+01
-5.289343e+01
-5.288602e+01
-5.287869e+01
-5.287145e+01
-5.286429e+01
-5.285722e+01
-5.285024e+01
-5.284334e+01
-5.283653e+01
-5.282981e+01
-5.282317e+01
-5.281662e+01
-5.281017e+01
-5.280380e+01
-5.279752e+01
-5.279133e+01
-5.278523e+01
-5.277923e+01
-5.277331e+01
-5.276749e+01
-5.276175e+01
-5.275611e+01
-5.275057e+01
-5.274511e+01
-5.273975e+01
-5.273448e+01
-5.272931e+01
-5.272423e+01
-5.271925e+01
-5.271436e+01
-5.270956e+01
-5.270487e+01
-5.270026e+01
-5.269576e+01
-5.269135e+01
-5.268704e+01
-5.268282e+01
-5.267871e+01
-5.267469e+01
-5.267077e+01
-5.266694e+01
-5.266322e+01
-5.265959e+01
-5.265607e+01
-5.265264e+01
-5.264931e+01
-5.264609e+01
-5.264296e+01
-5.263993e+01
-5.263701e+01
-5.263418e+01
-5.263146e+01
-5.262883e+01
-5.262631e+01
-5.262389e+01
-5.262157e+01
-5.261936e+01
-5.261724e+01
-5.261523e+01
-5.261332e+01
-5.261151e+01
-5.260981e+01
-5.260821e+01
-5.260671e+01
-5.260531e+01
-5.260402e+01
-5.260284e+01
-5.260176e+01
-5.260078e+01
-5.259991e+01
-5.259915e+01
-5.259850e+01
-5.259795e+01
-5.259751e+01
-5.259718e+01
-5.259696e+01
-5.259685e+01
