# vtk DataFile Version 3.0
Monodomain MVF
ASCII
DATASET POLYDATA
POINTS 501 float
0.000000e+00 0.000000e+00 0.000000e+00
1.000000e-02 0.000000e+00 0.000000e+00
2.000000e-02 0.000000e+00 0.000000e+00
3.000000e-02 0.000000e+00 0.000000e+00
4.000000e-02 0.000000e+00 0.000000e+00
5.000000e-02 0.000000e+00 0.000000e+00
6.000000e-02 0.000000e+00 0.000000e+00
7.000000e-02 0.000000e+00 0.000000e+00
8.000000e-02 0.000000e+00 0.000000e+00
9.000000e-02 0.000000e+00 0.000000e+00
1.000000e-01 0.000000e+00 0.000000e+00
1.100000e-01 0.000000e+00 0.000000e+00
1.200000e-01 0.000000e+00 0.000000e+00
1.300000e-01 0.000000e+00 0.000000e+00
1.400000e-01 0.000000e+00 0.000000e+00
1.500000e-01 0.000000e+00 0.000000e+00
1.600000e-01 0.000000e+00 0.000000e+00
1.700000e-01 0.000000e+00 0.000000e+00
1.800000e-01 0.000000e+00 0.000000e+00
1.900000e-01 0.000000e+00 0.000000e+00
2.000000e-01 0.000000e+00 0.000000e+00
2.100000e-01 0.000000e+00 0.000000e+00
2.200000e-01 0.000000e+00 0.000000e+00
2.300000e-01 0.000000e+00 0.000000e+00
2.400000e-01 0.000000e+00 0.000000e+00
2.500000e-01 0.000000e+00 0.000000e+00
2.600000e-01 0.000000e+00 0.000000e+00
2.700000e-01 0.000000e+00 0.000000e+00
2.800000e-01 0.000000e+00 0.000000e+00
2.900000e-01 0.000000e+00 0.000000e+00
3.000000e-01 0.000000e+00 0.000000e+00
3.100000e-01 0.000000e+00 0.000000e+00
3.200000e-01 0.000000e+00 0.000000e+00
3.300000e-01 0.000000e+00 0.000000e+00
3.400000e-01 0.000000e+00 0.000000e+00
3.500000e-01 0.000000e+00 0.000000e+00
3.600000e-01 0.000000e+00 0.000000e+00
3.700000e-01 0.000000e+00 0.000000e+00
3.800000e-01 0.000000e+00 0.000000e+00
3.900000e-01 0.000000e+00 0.000000e+00
4.000000e-01 0.000000e+00 0.000000e+00
4.100000e-01 0.000000e+00 0.000000e+00
4.200000e-01 0.000000e+00 0.000000e+00
4.300000e-01 0.000000e+00 0.000000e+00
4.400000e-01 0.000000e+00 0.000000e+00
4.500000e-01 0.000000e+00 0.000000e+00
4.600000e-01 0.000000e+00 0.000000e+00
4.700000e-01 0.000000e+00 0.000000e+00
4.800000e-01 0.000000e+00 0.000000e+00
4.900000e-01 0.000000e+00 0.000000e+00
5.000000e-01 0.000000e+00 0.000000e+00
5.100000e-01 0.000000e+00 0.000000e+00
5.200000e-01 0.000000e+00 0.000000e+00
5.300000e-01 0.000000e+00 0.000000e+00
5.400000e-01 0.000000e+00 0.000000e+00
5.500000e-01 0.000000e+00 0.000000e+00
5.600000e-01 0.000000e+00 0.000000e+00
5.700000e-01 0.000000e+00 0.000000e+00
5.800000e-01 0.000000e+00 0.000000e+00
5.900000e-01 0.000000e+00 0.000000e+00
6.000000e-01 0.000000e+00 0.000000e+00
6.100000e-01 0.000000e+00 0.000000e+00
6.200000e-01 0.000000e+00 0.000000e+00
6.300000e-01 0.000000e+00 0.000000e+00
6.400000e-01 0.000000e+00 0.000000e+00
6.500000e-01 0.000000e+00 0.000000e+00
6.600000e-01 0.000000e+00 0.000000e+00
6.700000e-01 0.000000e+00 0.000000e+00
6.800000e-01 0.000000e+00 0.000000e+00
6.900000e-01 0.000000e+00 0.000000e+00
7.000000e-01 0.000000e+00 0.000000e+00
7.100000e-01 0.000000e+00 0.000000e+00
7.200000e-01 0.000000e+00 0.000000e+00
7.300000e-01 0.000000e+00 0.000000e+00
7.400000e-01 0.000000e+00 0.000000e+00
7.500000e-01 0.000000e+00 0.000000e+00
7.600000e-01 0.000000e+00 0.000000e+00
7.700000e-01 0.000000e+00 0.000000e+00
7.800000e-01 0.000000e+00 0.000000e+00
7.900000e-01 0.000000e+00 0.000000e+00
8.000000e-01 0.000000e+00 0.000000e+00
8.100000e-01 0.000000e+00 0.000000e+00
8.200000e-01 0.000000e+00 0.000000e+00
8.300000e-01 0.000000e+00 0.000000e+00
8.400000e-01 0.000000e+00 0.000000e+00
8.500000e-01 0.000000e+00 0.000000e+00
8.600000e-01 0.000000e+00 0.000000e+00
8.700000e-01 0.000000e+00 0.000000e+00
8.800000e-01 0.000000e+00 0.000000e+00
8.900000e-01 0.000000e+00 0.000000e+00
9.000000e-01 0.000000e+00 0.000000e+00
9.100000e-01 0.000000e+00 0.000000e+00
9.200000e-01 0.000000e+00 0.000000e+00
9.300000e-01 0.000000e+00 0.000000e+00
9.400000e-01 0.000000e+00 0.000000e+00
9.500000e-01 0.000000e+00 0.000000e+00
9.600000e-01 0.000000e+00 0.000000e+00
9.700000e-01 0.000000e+00 0.000000e+00
9.800000e-01 0.000000e+00 0.000000e+00
9.900000e-01 0.000000e+00 0.000000e+00
1.000000e+00 0.000000e+00 0.000000e+00
1.010000e+00 0.000000e+00 0.000000e+00
1.020000e+00 0.000000e+00 0.000000e+00
1.030000e+00 0.000000e+00 0.000000e+00
1.040000e+00 0.000000e+00 0.000000e+00
1.050000e+00 0.000000e+00 0.000000e+00
1.060000e+00 0.000000e+00 0.000000e+00
1.070000e+00 0.000000e+00 0.000000e+00
1.080000e+00 0.000000e+00 0.000000e+00
1.090000e+00 0.000000e+00 0.000000e+00
1.100000e+00 0.000000e+00 0.000000e+00
1.110000e+00 0.000000e+00 0.000000e+00
1.120000e+00 0.000000e+00 0.000000e+00
1.130000e+00 0.000000e+00 0.000000e+00
1.140000e+00 0.000000e+00 0.000000e+00
1.150000e+00 0.000000e+00 0.000000e+00
1.160000e+00 0.000000e+00 0.000000e+00
1.170000e+00 0.000000e+00 0.000000e+00
1.180000e+00 0.000000e+00 0.000000e+00
1.190000e+00 0.000000e+00 0.000000e+00
1.200000e+00 0.000000e+00 0.000000e+00
1.210000e+00 0.000000e+00 0.000000e+00
1.220000e+00 0.000000e+00 0.000000e+00
1.230000e+00 0.000000e+00 0.000000e+00
1.240000e+00 0.000000e+00 0.000000e+00
1.250000e+00 0.000000e+00 0.000000e+00
1.260000e+00 0.000000e+00 0.000000e+00
1.270000e+00 0.000000e+00 0.000000e+00
1.280000e+00 0.000000e+00 0.000000e+00
1.290000e+00 0.000000e+00 0.000000e+00
1.300000e+00 0.000000e+00 0.000000e+00
1.310000e+00 0.000000e+00 0.000000e+00
1.320000e+00 0.000000e+00 0.000000e+00
1.330000e+00 0.000000e+00 0.000000e+00
1.340000e+00 0.000000e+00 0.000000e+00
1.350000e+00 0.000000e+00 0.000000e+00
1.360000e+00 0.000000e+00 0.000000e+00
1.370000e+00 0.000000e+00 0.000000e+00
1.380000e+00 0.000000e+00 0.000000e+00
1.390000e+00 0.000000e+00 0.000000e+00
1.400000e+00 0.000000e+00 0.000000e+00
1.410000e+00 0.000000e+00 0.000000e+00
1.420000e+00 0.000000e+00 0.000000e+00
1.430000e+00 0.000000e+00 0.000000e+00
1.440000e+00 0.000000e+00 0.000000e+00
1.450000e+00 0.000000e+00 0.000000e+00
1.460000e+00 0.000000e+00 0.000000e+00
1.470000e+00 0.000000e+00 0.000000e+00
1.480000e+00 0.000000e+00 0.000000e+00
1.490000e+00 0.000000e+00 0.000000e+00
1.500000e+00 0.000000e+00 0.000000e+00
1.510000e+00 0.000000e+00 0.000000e+00
1.520000e+00 0.000000e+00 0.000000e+00
1.530000e+00 0.000000e+00 0.000000e+00
1.540000e+00 0.000000e+00 0.000000e+00
1.550000e+00 0.000000e+00 0.000000e+00
1.560000e+00 0.000000e+00 0.000000e+00
1.570000e+00 0.000000e+00 0.000000e+00
1.580000e+00 0.000000e+00 0.000000e+00
1.590000e+00 0.000000e+00 0.000000e+00
1.600000e+00 0.000000e+00 0.000000e+00
1.610000e+00 0.000000e+00 0.000000e+00
1.620000e+00 0.000000e+00 0.000000e+00
1.630000e+00 0.000000e+00 0.000000e+00
1.640000e+00 0.000000e+00 0.000000e+00
1.650000e+00 0.000000e+00 0.000000e+00
1.660000e+00 0.000000e+00 0.000000e+00
1.670000e+00 0.000000e+00 0.000000e+00
1.680000e+00 0.000000e+00 0.000000e+00
1.690000e+00 0.000000e+00 0.000000e+00
1.700000e+00 0.000000e+00 0.000000e+00
1.710000e+00 0.000000e+00 0.000000e+00
1.720000e+00 0.000000e+00 0.000000e+00
1.730000e+00 0.000000e+00 0.000000e+00
1.740000e+00 0.000000e+00 0.000000e+00
1.750000e+00 0.000000e+00 0.000000e+00
1.760000e+00 0.000000e+00 0.000000e+00
1.770000e+00 0.000000e+00 0.000000e+00
1.780000e+00 0.000000e+00 0.000000e+00
1.790000e+00 0.000000e+00 0.000000e+00
1.800000e+00 0.000000e+00 0.000000e+00
1.810000e+00 0.000000e+00 0.000000e+00
1.820000e+00 0.000000e+00 0.000000e+00
1.830000e+00 0.000000e+00 0.000000e+00
1.840000e+00 0.000000e+00 0.000000e+00
1.850000e+00 0.000000e+00 0.000000e+00
1.860000e+00 0.000000e+00 0.000000e+00
1.870000e+00 0.000000e+00 0.000000e+00
1.880000e+00 0.000000e+00 0.000000e+00
1.890000e+00 0.000000e+00 0.000000e+00
1.900000e+00 0.000000e+00 0.000000e+00
1.910000e+00 0.000000e+00 0.000000e+00
1.920000e+00 0.000000e+00 0.000000e+00
1.930000e+00 0.000000e+00 0.000000e+00
1.940000e+00 0.000000e+00 0.000000e+00
1.950000e+00 0.000000e+00 0.000000e+00
1.960000e+00 0.000000e+00 0.000000e+00
1.970000e+00 0.000000e+00 0.000000e+00
1.980000e+00 0.000000e+00 0.000000e+00
1.990000e+00 0.000000e+00 0.000000e+00
2.000000e+00 0.000000e+00 0.000000e+00
2.010000e+00 0.000000e+00 0.000000e+00
2.020000e+00 0.000000e+00 0.000000e+00
2.030000e+00 0.000000e+00 0.000000e+00
2.040000e+00 0.000000e+00 0.000000e+00
2.050000e+00 0.000000e+00 0.000000e+00
2.060000e+00 0.000000e+00 0.000000e+00
2.070000e+00 0.000000e+00 0.000000e+00
2.080000e+00 0.000000e+00 0.000000e+00
2.090000e+00 0.000000e+00 0.000000e+00
2.100000e+00 0.000000e+00 0.000000e+00
2.110000e+00 0.000000e+00 0.000000e+00
2.120000e+00 0.000000e+00 0.000000e+00
2.130000e+00 0.000000e+00 0.000000e+00
2.140000e+00 0.000000e+00 0.000000e+00
2.150000e+00 0.000000e+00 0.000000e+00
2.160000e+00 0.000000e+00 0.000000e+00
2.170000e+00 0.000000e+00 0.000000e+00
2.180000e+00 0.000000e+00 0.000000e+00
2.190000e+00 0.000000e+00 0.000000e+00
2.200000e+00 0.000000e+00 0.000000e+00
2.210000e+00 0.000000e+00 0.000000e+00
2.220000e+00 0.000000e+00 0.000000e+00
2.230000e+00 0.000000e+00 0.000000e+00
2.240000e+00 0.000000e+00 0.000000e+00
2.250000e+00 0.000000e+00 0.000000e+00
2.260000e+00 0.000000e+00 0.000000e+00
2.270000e+00 0.000000e+00 0.000000e+00
2.280000e+00 0.000000e+00 0.000000e+00
2.290000e+00 0.000000e+00 0.000000e+00
2.300000e+00 0.000000e+00 0.000000e+00
2.310000e+00 0.000000e+00 0.000000e+00
2.320000e+00 0.000000e+00 0.000000e+00
2.330000e+00 0.000000e+00 0.000000e+00
2.340000e+00 0.000000e+00 0.000000e+00
2.350000e+00 0.000000e+00 0.000000e+00
2.360000e+00 0.000000e+00 0.000000e+00
2.370000e+00 0.000000e+00 0.000000e+00
2.380000e+00 0.000000e+00 0.000000e+00
2.390000e+00 0.000000e+00 0.000000e+00
2.400000e+00 0.000000e+00 0.000000e+00
2.410000e+00 0.000000e+00 0.000000e+00
2.420000e+00 0.000000e+00 0.000000e+00
2.430000e+00 0.000000e+00 0.000000e+00
2.440000e+00 0.000000e+00 0.000000e+00
2.450000e+00 0.000000e+00 0.000000e+00
2.460000e+00 0.000000e+00 0.000000e+00
2.470000e+00 0.000000e+00 0.000000e+00
2.480000e+00 0.000000e+00 0.000000e+00
2.490000e+00 0.000000e+00 0.000000e+00
2.500000e+00 0.000000e+00 0.000000e+00
2.510000e+00 0.000000e+00 0.000000e+00
2.520000e+00 0.000000e+00 0.000000e+00
2.530000e+00 0.000000e+00 0.000000e+00
[...]
POINT_DATA 501
SCALARS vm float 1
LOOKUP_TABLE default
-3.382377e+01
-3.382357e+01
-3.382318e+01
-3.382260e+01
-3.382183e+01
-3.382087e+01
-3.381975e+01
-3.381845e+01
-3.381699e+01
-3.381537e+01
-3.381358e+01
-3.381164e+01
-3.380954e+01
-3.380729e+01
-3.380489e+01
-3.380234e+01
-3.379965e+01
-3.379682e+01
-3.379385e+01
-3.379074e+01
-3.378750e+01
-3.378413e+01
-3.378063e+01
-3.377700e+01
-3.377324e+01
-3.376937e+01
-3.376537e+01
-3.376126e+01
-3.375703e+01
-3.375268e+01
-3.374822e+01
-3.374365e+01
-3.373898e+01
-3.373419e+01
-3.372930e+01
-3.372431e+01
-3.371921e+01
-3.371401e+01
-3.370872e+01
-3.370332e+01
-3.369783e+01
-3.369225e+01
-3.368658e+01
-3.368081e+01
-3.367495e+01
-3.366900e+01
-3.366297e+01
-3.365685e+01
-3.365064e+01
-3.364435e+01
-3.363798e+01
-3.363152e+01
-3.362499e+01
-3.361838e+01
-3.361169e+01
-3.360492e+01
-3.359808e+01
-3.359116e+01
-3.358417e+01
-3.357711e+01
-3.356997e+01
-3.356276e+01
-3.355549e+01
-3.354815e+01
-3.354074e+01
-3.353326e+01
-3.352572e+01
-3.351811e+01
-3.351043e+01
-3.350270e+01
-3.349490e+01
-3.348704e+01
-3.347913e+01
-3.347115e+01
-3.346311e+01
-3.345502e+01
-3.344686e+01
-3.343866e+01
-3.343039e+01
-3.342207e+01
-3.341370e+01
-3.340527e+01
-3.339680e+01
-3.338827e+01
-3.337968e+01
-3.337105e+01
-3.336237e+01
-3.335364e+01
-3.334486e+01
-3.333604e+01
-3.332717e+01
-3.331825e+01
-3.330928e+01
-3.330027e+01
-3.329122e+01
-3.328212e+01
-3.327298e+01
-3.326380e+01
-3.325458e+01
-3.324531e+01
-3.323601e+01
-3.322666e+01
-3.321728e+01
-3.320785e+01
-3.319839e+01
-3.318889e+01
-3.317936e+01
-3.316978e+01
-3.316017e+01
-3.315053e+01
-3.314085e+01
-3.313114e+01
-3.312139e+01
-3.311161e+01
-3.310180e+01
-3.309196e+01
-3.308208e+01
-3.307217e+01
-3.306224e+01
-3.305227e+01
-3.304227e+01
-3.303224e+01
-3.302219e+01
-3.301210e+01
-3.300199e+01
-3.299185e+01
-3.298169e+01
-3.297150e+01
-3.296128e+01
-3.295104e+01
-3.294077e+01
-3.293048e+01
-3.292016e+01
-3.290982e+01
-3.289946e+01
-3.288907e+01
-3.287866e+01
-3.286823e+01
-3.285778e+01
-3.284731e+01
-3.283681e+01
-3.282630e+01
-3.281576e+01
-3.280521e+01
-3.279464e+01
-3.278405e+01
-3.277344e+01
-3.276281e+01
-3.275216e+01
-3.274150e+01
-3.273082e+01
-3.272012e+01
-3.270941e+01
-3.269868e+01
-3.268794e+01
-3.267718e+01
-3.266640e+01
-3.265562e+01
-3.264482e+01
-3.263400e+01
-3.262317e+01
-3.261233e+01
-3.260147e+01
-3.259060e+01
-3.257972e+01
-3.256883e+01
-3.255793e+01
-3.254701e+01
-3.253609e+01
-3.252515e+01
-3.251421e+01
-3.250325e+01
-3.249229e+01
-3.248131e+01
-3.247033e+01
-3.245933e+01
-3.244833e+01
-3.243732e+01
-3.242631e+01
-3.241528e+01
-3.240425e+01
-3.239321e+01
-3.238216e+01
-3.237111e+01
-3.236005e+01
-3.234899e+01
-3.233791e+01
-3.232684e+01
-3.231576e+01
-3.230467e+01
-3.229358e+01
-3.228248e+01
-3.227138e+01
-3.226028e+01
-3.224917e+01
-3.223805e+01
-3.222694e+01
-3.221582e+01
-3.220470e+01
-3.219358e+01
-3.218245e+01
-3.217132e+01
-3.216019e+01
-3.214906e+01
-3.213793e+01
-3.212679e+01
-3.211566e+01
-3.210452e+01
-3.209338e+01
-3.208225e+01
-3.207111e+01
-3.205997e+01
-3.204883e+01
-3.203770e+01
-3.202656e+01
-3.201542e+01
-3.200429e+01
-3.199316e+01
-3.198202e+01
-3.197089e+01
-3.195977e+01
-3.194864e+01
-3.193752e+01
-3.192639e+01
-3.191527e+01
-3.190416e+01
-3.189305e+01
-3.188194e+01
-3.187083e+01
-3.185973e+01
-3.184863e+01
-3.183753e+01
-3.182644e+01
-3.181535e+01
-3.180427e+01
-3.179319e+01
-3.178212e+01
-3.177105e+01
-3.175999e+01
-3.174893e+01
-3.173788e+01
-3.172683e+01
-3.171579e+01
-3.170476e+01
-3.169373e+01
-3.168271e+01
-3.167170e+01
-3.166069e+01
-3.164969e+01
-3.163869e+01
-3.162771e+01
-3.161673e+01
-3.160576e+01
-3.159479e+01
-3.158383e+01
-3.157289e+01
-3.156195e+01
-3.155102e+01
-3.154009e+01
-3.152918e+01
-3.151827e+01
-3.150738e+01
-3.149649e+01
-3.148562e+01
-3.147475e+01
-3.146389e+01
-3.145304e+01
-3.144221e+01
-3.143138e+01
-3.142056e+01
-3.140976e+01
-3.139896e+01
-3.138818e+01
-3.137740e+01
-3.136664e+01
-3.135589e+01
-3.134515e+01
-3.133443e+01
-3.132371e+01
-3.131301e+01
-3.130232e+01
-3.129164e+01
-3.128098e+01
-3.127032e+01
-3.125968e+01
-3.124906e+01
-3.123844e+01
-3.122784e+01
-3.121726e+01
-3.120669e+01
-3.119613e+01
-3.118559e+01
-3.117506e+01
-3.116454e+01
-3.115404e+01
-3.114356e+01
-3.113309e+01
-3.112263e+01
-3.111220e+01
-3.110177e+01
-3.109136e+01
-3.108097e+01
-3.107060e+01
-3.106024e+01
-3.104990e+01
-3.103957e+01
-3.102927e+01
-3.101897e+01
-3.100870e+01
-3.099845e+01
-3.098821e+01
-3.097799e+01
-3.096779e+01
-3.095760e+01
-3.094744e+01
-3.093729e+01
-3.092717e+01
-3.091706e+01
-3.090697e+01
-3.089690e+01
-3.088685e+01
-3.087682e+01
-3.086681e+01
-3.085683e+01
-3.084686e+01
-3.083691e+01
-3.082699e+01
-3.081708e+01
-3.080720e+01
-3.079734e+01
-3.078750e+01
-3.077769e+01
-3.076789e+01
-3.075812e+01
-3.074837e+01
-3.073865e+01
-3.072895e+01
-3.071927e+01
-3.070962e+01
-3.069999e+01
-3.069038e+01
-3.068080e+01
-3.067125e+01
-3.066172e+01
-3.065222e+01
-3.064274e+01
-3.063329e+01
-3.062386e+01
-3.061446e+01
-3.060509e+01
-3.059574e+01
-3.058642e+01
-3.057713e+01
-3.056787e+01
-3.055864e+01
-3.054943e+01
-3.054026e+01
-3.053111e+01
-3.052199e+01
-3.051290e+01
-3.050384e+01
-3.049482e+01
-3.048582e+01
-3.047685e+01
-3.046792e+01
-3.045901e+01
-3.045014e+01
-3.044130e+01
-3.043250e+01
-3.042372e+01
-3.041498e+01
-3.040628e+01
-3.039760e+01
-3.038897e+01
-3.038036e+01
-3.037179e+01
-3.036326e+01
-3.035476e+01
-3.034630e+01
-3.033788e+01
-3.032949e+01
-3.032113e+01
-3.031282e+01
-3.030455e+01
-3.029631e+01
-3.028811e+01
-3.027995e+01
-3.027183e+01
-3.026375e+01
-3.025571e+01
-3.024771e+01
-3.023975e+01
-3.023184e+01
-3.022396e+01
-3.021613e+01
-3.020834e+01
-3.020060e+01
-3.019289e+01
-3.018524e+01
-3.017762e+01
-3.017005e+01
-3.016253e+01
-3.015505e+01
-3.014762e+01
-3.014024e+01
-3.013290e+01
-3.012561e+01
-3.011837e+01
-3.011118e+01
-3.010404e+01
-3.009694e+01
-3.008990e+01
-3.008291e+01
-3.007597e+01
-3.006908e+01
-3.006224e+01
-3.005546e+01
-3.004873e+01
-3.004205e+01
-3.003543e+01
-3.002886e+01
-3.002235e+01
-3.001589e+01
-3.000949e+01
-3.000315e+01
-2.999686e+01
-2.999064e+01
-2.998447e+01
-2.997836e+01
-2.997231e+01
-2.996632e+01
-2.996039e+01
-2.995452e+01
-2.994872e+01
-2.994298e+01
-2.993730e+01
-2.993168e+01
-2.992613e+01
-2.992065e+01
-2.991523e+01
-2.990987e+01
-2.990459e+01
-2.989937e+01
-2.989422e+01
-2.988914e+01
-2.988412e+01
-2.987918e+01
-2.987431e+01
-2.986951e+01
-2.986478e+01
-2.986013e+01
-2.985555e+01
-2.985104e+01
-2.984660e+01
-2.984224e+01
-2.983796e+01
-2.983376e+01
-2.982963e+01
-2.982558e+01
-2.982160e+01
-2.981771e+01
-2.981389e+01
-2.981016e+01
-2.980651e+01
-2.980294e+01
-2.979945e+01
-2.979605e+01
-2.979272e+01
-2.978949e+01
-2.978633e+01
-2.978327e+01
-2.978029e+01
-2.977740e+01
-2.977459e+01
-2.977187e+01
-2.976925e+01
-2.976671e+01
-2.976426e+01
-2.976190e+01
-2.975964e+01
-2.975747e+01
-2.975539e+01
-2.975340e+01
-2.975151e+01
-2.974972e+01
-2.974802e+01
-2.974642e+01
-2.974492e+01
-2.974351e+01
-2.974221e+01
-2.974100e+01
-2.973990e+01
-2.973891e+01
-2.973801e+01
-2.973723e+01
-2.973655e+01
-2.973598e+01
-2.973553e+01
-2.973519e+01
-2.973496e+01
-2.973484e+01
