# vtk DataFile Version 3.0
Monodomain MVF
ASCII
DATASET POLYDATA
POINTS 501 float
0.000000e+00 0.000000e+00 0.000000e+00
1.000000e-02 0.000000e+00 0.000000e+00
2.000000e-02 0.000000e+00 0.000000e+00
3.000000e-02 0.000000e+00 0.000000e+00
4.000000e-02 0.000000e+00 0.000000e+00
5.000000e-02 0.000000e+00 0.000000e+00
6.000000e-02 0.000000e+00 0.000000e+00
7.000000e-02 0.000000e+00 0.000000e+00
8.000000e-02 0.000000e+00 0.000000e+00
9.000000e-02 0.000000e+00 0.000000e+00
1.000000e-01 0.000000e+00 0.000000e+00
1.100000e-01 0.000000e+00 0.000000e+00
1.200000e-01 0.000000e+00 0.000000e+00
1.300000e-01 0.000000e+00 0.000000e+00
1.400000e-01 0.000000e+00 0.000000e+00
1.500000e-01 0.000000e+00 0.000000e+00
1.600000e-01 0.000000e+00 0.000000e+00
1.700000e-01 0.000000e+00 0.000000e+00
1.800000e-01 0.000000e+00 0.000000e+00
1.900000e-01 0.000000e+00 0.000000e+00
2.000000e-01 0.000000e+00 0.000000e+00
2.100000e-01 0.000000e+00 0.000000e+00
2.200000e-01 0.000000e+00 0.000000e+00
2.300000e-01 0.000000e+00 0.000000e+00
2.400000e-01 0.000000e+00 0.000000e+00
2.500000e-01 0.000000e+00 0.000000e+00
2.600000e-01 0.000000e+00 0.000000e+00
2.700000e-01 0.000000e+00 0.000000e+00
2.800000e-01 0.000000e+00 0.000000e+00
2.900000e-01 0.000000e+00 0.000000e+00
3.000000e-01 0.000000e+00 0.000000e+00
3.100000e-01 0.000000e+00 0.000000e+00
3.200000e-01 0.000000e+00 0.000000e+00
3.300000e-01 0.000000e+00 0.000000e+00
3.400000e-01 0.000000e+00 0.000000e+00
3.500000e-01 0.000000e+00 0.000000e+00
3.600000e-01 0.000000e+00 0.000000e+00
3.700000e-01 0.000000e+00 0.000000e+00
3.800000e-01 0.000000e+00 0.000000e+00
3.900000e-01 0.000000e+00 0.000000e+00
4.000000e-01 0.000000e+00 0.000000e+00
4.100000e-01 0.000000e+00 0.000000e+00
4.200000e-01 0.000000e+00 0.000000e+00
4.300000e-01 0.000000e+00 0.000000e+00
4.400000e-01 0.000000e+00 0.000000e+00
4.500000e-01 0.000000e+00 0.000000e+00
4.600000e-01 0.000000e+00 0.000000e+00
4.700000e-01 0.000000e+00 0.000000e+00
4.800000e-01 0.000000e+00 0.000000e+00
4.900000e-01 0.000000e+00 0.000000e+00
5.000000e-01 0.000000e+00 0.000000e+00
5.100000e-01 0.000000e+00 0.000000e+00
5.200000e-01 0.000000e+00 0.000000e+00
5.300000e-01 0.000000e+00 0.000000e+00
5.400000e-01 0.000000e+00 0.000000e+00
5.500000e-01 0.000000e+00 0.000000e+00
5.600000e-01 0.000000e+00 0.000000e+00
5.700000e-01 0.000000e+00 0.000000e+00
5.800000e-01 0.000000e+00 0.000000e+00
5.900000e-01 0.000000e+00 0.000000e+00
6.000000e-01 0.000000e+00 0.000000e+00
6.100000e-01 0.000000e+00 0.000000e+00
6.200000e-01 0.000000e+00 0.000000e+00
6.300000e-01 0.000000e+00 0.000000e+00
6.400000e-01 0.000000e+00 0.000000e+00
6.500000e-01 0.000000e+00 0.000000e+00
6.600000e-01 0.000000e+00 0.000000e+00
6.700000e-01 0.000000e+00 0.000000e+00
6.800000e-01 0.000000e+00 0.000000e+00
6.900000e-01 0.000000e+00 0.000000e+00
7.000000e-01 0.000000e+00 0.000000e+00
7.100000e-01 0.000000e+00 0.000000e+00
7.200000e-01 0.000000e+00 0.000000e+00
7.300000e-01 0.000000e+00 0.000000e+00
7.400000e-01 0.000000e+00 0.000000e+00
7.500000e-01 0.000000e+00 0.000000e+00
7.600000e-01 0.000000e+00 0.000000e+00
7.700000e-01 0.000000e+00 0.000000e+00
7.800000e-01 0.000000e+00 0.000000e+00
7.900000e-01 0.000000e+00 0.000000e+00
8.000000e-01 0.000000e+00 0.000000e+00
8.100000e-01 0.000000e+00 0.000000e+00
8.200000e-01 0.000000e+00 0.000000e+00
8.300000e-01 0.000000e+00 0.000000e+00
8.400000e-01 0.000000e+00 0.000000e+00
8.500000e-01 0.000000e+00 0.000000e+00
8.600000e-01 0.000000e+00 0.000000e+00
8.700000e-01 0.000000e+00 0.000000e+00
8.800000e-01 0.000000e+00 0.000000e+00
8.900000e-01 0.000000e+00 0.000000e+00
9.000000e-01 0.000000e+00 0.000000e+00
9.100000e-01 0.000000e+00 0.000000e+00
9.200000e-01 0.000000e+00 0.000000e+00
9.300000e-01 0.000000e+00 0.000000e+00
9.400000e-01 0.000000e+00 0.000000e+00
9.500000e-01 0.000000e+00 0.000000e+00
9.600000e-01 0.000000e+00 0.000000e+00
9.700000e-01 0.000000e+00 0.000000e+00
9.800000e-01 0.000000e+00 0.000000e+00
9.900000e-01 0.000000e+00 0.000000e+00
1.000000e+00 0.000000e+00 0.000000e+00
1.010000e+00 0.000000e+00 0.000000e+00
1.020000e+00 0.000000e+00 0.000000e+00
1.030000e+00 0.000000e+00 0.000000e+00
1.040000e+00 0.000000e+00 0.000000e+00
1.050000e+00 0.000000e+00 0.000000e+00
1.060000e+00 0.000000e+00 0.000000e+00
1.070000e+00 0.000000e+00 0.000000e+00
1.080000e+00 0.000000e+00 0.000000e+00
1.090000e+00 0.000000e+00 0.000000e+00
1.100000e+00 0.000000e+00 0.000000e+00
1.110000e+00 0.000000e+00 0.000000e+00
1.120000e+00 0.000000e+00 0.000000e+00
1.130000e+00 0.000000e+00 0.000000e+00
1.140000e+00 0.000000e+00 0.000000e+00
1.150000e+00 0.000000e+00 0.000000e+00
1.160000e+00 0.000000e+00 0.000000e+00
1.170000e+00 0.000000e+00 0.000000e+00
1.180000e+00 0.000000e+00 0.000000e+00
1.190000e+00 0.000000e+00 0.000000e+00
1.200000e+00 0.000000e+00 0.000000e+00
1.210000e+00 0.000000e+00 0.000000e+00
1.220000e+00 0.000000e+00 0.000000e+00
1.230000e+00 0.000000e+00 0.000000e+00
1.240000e+00 0.000000e+00 0.000000e+00
1.250000e+00 0.000000e+00 0.000000e+00
1.260000e+00 0.000000e+00 0.000000e+00
1.270000e+00 0.000000e+00 0.000000e+00
1.280000e+00 0.000000e+00 0.000000e+00
1.290000e+00 0.000000e+00 0.000000e+00
1.300000e+00 0.000000e+00 0.000000e+00
1.310000e+00 0.000000e+00 0.000000e+00
1.320000e+00 0.000000e+00 0.000000e+00
1.330000e+00 0.000000e+00 0.000000e+00
1.340000e+00 0.000000e+00 0.000000e+00
1.350000e+00 0.000000e+00 0.000000e+00
1.360000e+00 0.000000e+00 0.000000e+00
1.370000e+00 0.000000e+00 0.000000e+00
1.380000e+00 0.000000e+00 0.000000e+00
1.390000e+00 0.000000e+00 0.000000e+00
1.400000e+00 0.000000e+00 0.000000e+00
1.410000e+00 0.000000e+00 0.000000e+00
1.420000e+00 0.000000e+00 0.000000e+00
1.430000e+00 0.000000e+00 0.000000e+00
1.440000e+00 0.000000e+00 0.000000e+00
1.450000e+00 0.000000e+00 0.000000e+00
1.460000e+00 0.000000e+00 0.000000e+00
1.470000e+00 0.000000e+00 0.000000e+00
1.480000e+00 0.000000e+00 0.000000e+00
1.490000e+00 0.000000e+00 0.000000e+00
1.500000e+00 0.000000e+00 0.000000e+00
1.510000e+00 0.000000e+00 0.000000e+00
1.520000e+00 0.000000e+00 0.000000e+00
1.530000e+00 0.000000e+00 0.000000e+00
1.540000e+00 0.000000e+00 0.000000e+00
1.550000e+00 0.000000e+00 0.000000e+00
1.560000e+00 0.000000e+00 0.000000e+00
1.570000e+00 0.000000e+00 0.000000e+00
1.580000e+00 0.000000e+00 0.000000e+00
1.590000e+00 0.000000e+00 0.000000e+00
1.600000e+00 0.000000e+00 0.000000e+00
1.610000e+00 0.000000e+00 0.000000e+00
1.620000e+00 0.000000e+00 0.000000e+00
1.630000e+00 0.000000e+00 0.000000e+00
1.640000e+00 0.000000e+00 0.000000e+00
1.650000e+00 0.000000e+00 0.000000e+00
1.660000e+00 0.000000e+00 0.000000e+00
1.670000e+00 0.000000e+00 0.000000e+00
1.680000e+00 0.000000e+00 0.000000e+00
1.690000e+00 0.000000e+00 0.000000e+00
1.700000e+00 0.000000e+00 0.000000e+00
1.710000e+00 0.000000e+00 0.000000e+00
1.720000e+00 0.000000e+00 0.000000e+00
1.730000e+00 0.000000e+00 0.000000e+00
1.740000e+00 0.000000e+00 0.000000e+00
1.750000e+00 0.000000e+00 0.000000e+00
1.760000e+00 0.000000e+00 0.000000e+00
1.770000e+00 0.000000e+00 0.000000e+00
1.780000e+00 0.000000e+00 0.000000e+00
1.790000e+00 0.000000e+00 0.000000e+00
1.800000e+00 0.000000e+00 0.000000e+00
1.810000e+00 0.000000e+00 0.000000e+00
1.820000e+00 0.000000e+00 0.000000e+00
1.830000e+00 0.000000e+00 0.000000e+00
1.840000e+00 0.000000e+00 0.000000e+00
1.850000e+00 0.000000e+00 0.000000e+00
1.860000e+00 0.000000e+00 0.000000e+00
1.870000e+00 0.000000e+00 0.000000e+00
1.880000e+00 0.000000e+00 0.000000e+00
1.890000e+00 0.000000e+00 0.000000e+00
1.900000e+00 0.000000e+00 0.000000e+00
1.910000e+00 0.000000e+00 0.000000e+00
1.920000e+00 0.000000e+00 0.000000e+00
1.930000e+00 0.000000e+00 0.000000e+00
1.940000e+00 0.000000e+00 0.000000e+00
1.950000e+00 0.000000e+00 0.000000e+00
1.960000e+00 0.000000e+00 0.000000e+00
1.970000e+00 0.000000e+00 0.000000e+00
1.980000e+00 0.000000e+00 0.000000e+00
1.990000e+00 0.000000e+00 0.000000e+00
2.000000e+00 0.000000e+00 0.000000e+00
2.010000e+00 0.000000e+00 0.000000e+00
2.020000e+00 0.000000e+00 0.000000e+00
2.030000e+00 0.000000e+00 0.000000e+00
2.040000e+00 0.000000e+00 0.000000e+00
2.050000e+00 0.000000e+00 0.000000e+00
2.060000e+00 0.000000e+00 0.000000e+00
2.070000e+00 0.000000e+00 0.000000e+00
2.080000e+00 0.000000e+00 0.000000e+00
2.090000e+00 0.000000e+00 0.000000e+00
2.100000e+00 0.000000e+00 0.000000e+00
2.110000e+00 0.000000e+00 0.000000e+00
2.120000e+00 0.000000e+00 0.000000e+00
2.130000e+00 0.000000e+00 0.000000e+00
2.140000e+00 0.000000e+00 0.000000e+00
2.150000e+00 0.000000e+00 0.000000e+00
2.160000e+00 0.000000e+00 0.000000e+00
2.170000e+00 0.000000e+00 0.000000e+00
2.180000e+00 0.000000e+00 0.000000e+00
2.190000e+00 0.000000e+00 0.000000e+00
2.200000e+00 0.000000e+00 0.000000e+00
2.210000e+00 0.000000e+00 0.000000e+00
2.220000e+00 0.000000e+00 0.000000e+00
2.230000e+00 0.000000e+00 0.000000e+00
2.240000e+00 0.000000e+00 0.000000e+00
2.250000e+00 0.000000e+00 0.000000e+00
2.260000e+00 0.000000e+00 0.000000e+00
2.270000e+00 0.000000e+00 0.000000e+00
2.280000e+00 0.000000e+00 0.000000e+00
2.290000e+00 0.000000e+00 0.000000e+00
2.300000e+00 0.000000e+00 0.000000e+00
2.310000e+00 0.000000e+00 0.000000e+00
2.320000e+00 0.000000e+00 0.000000e+00
2.330000e+00 0.000000e+00 0.000000e+00
2.340000e+00 0.000000e+00 0.000000e+00
2.350000e+00 0.000000e+00 0.000000e+00
2.360000e+00 0.000000e+00 0.000000e+00
2.370000e+00 0.000000e+00 0.000000e+00
2.380000e+00 0.000000e+00 0.000000e+00
2.390000e+00 0.000000e+00 0.000000e+00
2.400000e+00 0.000000e+00 0.000000e+00
2.410000e+00 0.000000e+00 0.000000e+00
2.420000e+00 0.000000e+00 0.000000e+00
2.430000e+00 0.000000e+00 0.000000e+00
2.440000e+00 0.000000e+00 0.000000e+00
2.450000e+00 0.000000e+00 0.000000e+00
2.460000e+00 0.000000e+00 0.000000e+00
2.470000e+00 0.000000e+00 0.000000e+00
2.480000e+00 0.000000e+00 0.000000e+00
2.490000e+00 0.000000e+00 0.000000e+00
2.500000e+00 0.000000e+00 0.000000e+00
2.510000e+00 0.000000e+00 0.000000e+00
2.520000e+00 0.000000e+00 0.000000e+00
2.530000e+00 0.000000e+00 0.000000e+00
[...]
POINT_DATA 501
SCALARS vm float 1
LOOKUP_TABLE default
-2.712934e+01
-2.712915e+01
-2.712877e+01
-2.712821e+01
-2.712747e+01
-2.712654e+01
-2.712546e+01
-2.712423e+01
-2.712285e+01
-2.712131e+01
-2.711964e+01
-2.711782e+01
-2.711586e+01
-2.711377e+01
-2.711154e+01
-2.710919e+01
-2.710672e+01
-2.710412e+01
-2.710140e+01
-2.709857e+01
-2.709562e+01
-2.709257e+01
-2.708941e+01
-2.708614e+01
-2.708277e+01
-2.707930e+01
-2.707574e+01
-2.707208e+01
-2.706833e+01
-2.706448e+01
-2.706055e+01
-2.705653e+01
-2.705243e+01
-2.704825e+01
-2.704399e+01
-2.703964e+01
-2.703523e+01
-2.703073e+01
-2.702617e+01
-2.702153e+01
-2.701682e+01
-2.701205e+01
-2.700720e+01
-2.700230e+01
-2.699733e+01
-2.699229e+01
-2.698720e+01
-2.698204e+01
-2.697683e+01
-2.697156e+01
-2.696623e+01
-2.696085e+01
-2.695542e+01
-2.694993e+01
-2.694439e+01
-2.693881e+01
-2.693317e+01
-2.692748e+01
-2.692175e+01
-2.691597e+01
-2.691015e+01
-2.690428e+01
-2.689837e+01
-2.689242e+01
-2.688642e+01
-2.688038e+01
-2.687431e+01
-2.686819e+01
-2.686204e+01
-2.685585e+01
-2.684962e+01
-2.684336e+01
-2.683706e+01
-2.683073e+01
-2.682437e+01
-2.681797e+01
-2.681153e+01
-2.680507e+01
-2.679858e+01
-2.679205e+01
-2.678550e+01
-2.677891e+01
-2.677230e+01
-2.676566e+01
-2.675899e+01
-2.675230e+01
-2.674558e+01
-2.673883e+01
-2.673206e+01
-2.672526e+01
-2.671844e+01
-2.671159e+01
-2.670472e+01
-2.669783e+01
-2.669092e+01
-2.668398e+01
-2.667703e+01
-2.667005e+01
-2.666305e+01
-2.665603e+01
-2.664900e+01
-2.664194e+01
-2.663486e+01
-2.662777e+01
-2.662066e+01
-2.661353e+01
-2.660638e+01
-2.659921e+01
-2.659203e+01
-2.658484e+01
-2.657762e+01
-2.657040e+01
-2.656315e+01
-2.655589e+01
-2.654862e+01
-2.654134e+01
-2.653404e+01
-2.652672e+01
-2.651939e+01
-2.651205e+01
-2.650470e+01
-2.649734e+01
-2.648996e+01
-2.648257e+01
-2.647517e+01
-2.646776e+01
-2.646034e+01
-2.645291e+01
-2.644547e+01
-2.643801e+01
-2.643055e+01
-2.642308e+01
-2.641560e+01
-2.640810e+01
-2.640061e+01
-2.639310e+01
-2.638558e+01
-2.637806e+01
-2.637052e+01
-2.636298e+01
-2.635544e+01
-2.634788e+01
-2.634032e+01
-2.633275e+01
-2.632517e+01
-2.631759e+01
-2.631000e+01
-2.630241e+01
-2.629481e+01
-2.628720e+01
-2.627959e+01
-2.627197e+01
-2.626435e+01
-2.625672e+01
-2.624909e+01
-2.624146e+01
-2.623381e+01
-2.622617e+01
-2.621852e+01
-2.621087e+01
-2.620321e+01
-2.619555e+01
-2.618788e+01
-2.618022e+01
-2.617254e+01
-2.616487e+01
-2.615719e+01
-2.614951e+01
-2.614183e+01
-2.613415e+01
-2.612646e+01
-2.611877e+01
-2.611108e+01
-2.610339e+01
-2.609569e+01
-2.608799e+01
-2.608029e+01
-2.607259e+01
-2.606489e+01
-2.605719e+01
-2.604949e+01
-2.604178e+01
-2.603408e+01
-2.602637e+01
-2.601866e+01
-2.601096e+01
-2.600325e+01
-2.599554e+01
-2.598783e+01
-2.598012e+01
-2.597241e+01
-2.596470e+01
-2.595700e+01
-2.594929e+01
-2.594158e+01
-2.593387e+01
-2.592616e+01
-2.591846e+01
-2.591075e+01
-2.590305e+01
-2.589534e+01
-2.588764e+01
-2.587994e+01
-2.587224e+01
-2.586454e+01
-2.585684e+01
-2.584915e+01
-2.584145e+01
-2.583376e+01
-2.582607e+01
-2.581837e+01
-2.581069e+01
-2.580300e+01
-2.579531e+01
-2.578763e+01
-2.577995e+01
-2.577227e+01
-2.576460e+01
-2.575692e+01
-2.574925e+01
-2.574159e+01
-2.573392e+01
-2.572625e+01
-2.571859e+01
-2.571094e+01
-2.570328e+01
-2.569563e+01
-2.568798e+01
-2.568033e+01
-2.567269e+01
-2.566505e+01
-2.565741e+01
-2.564978e+01
-2.564215e+01
-2.563452e+01
-2.562690e+01
-2.561928e+01
-2.561166e+01
-2.560405e+01
-2.559644e+01
-2.558883e+01
-2.558123e+01
-2.557364e+01
-2.556604e+01
-2.555845e+01
-2.555087e+01
-2.554329e+01
-2.553571e+01
-2.552814e+01
-2.552057e+01
-2.551301e+01
-2.550545e+01
-2.549789e+01
-2.549034e+01
-2.548280e+01
-2.547526e+01
-2.546772e+01
-2.546019e+01
-2.545266e+01
-2.544514e+01
-2.543762e+01
-2.543011e+01
-2.542260e+01
-2.541511e+01
-2.540761e+01
-2.540012e+01
-2.539263e+01
-2.538515e+01
-2.537768e+01
-2.537021e+01
-2.536275e+01
-2.535529e+01
-2.534784e+01
-2.534039e+01
-2.533296e+01
-2.532552e+01
-2.531809e+01
-2.531067e+01
-2.530326e+01
-2.529585e+01
-2.528844e+01
-2.528105e+01
-2.527366e+01
-2.526628e+01
-2.525890e+01
-2.525153e+01
-2.524417e+01
-2.523681e+01
-2.522946e+01
-2.522212e+01
-2.521478e+01
-2.520745e+01
-2.520013e+01
-2.519282e+01
-2.518551e+01
-2.517821e+01
-2.517092e+01
-2.516364e+01
-2.515636e+01
-2.514910e+01
-2.514184e+01
-2.513458e+01
-2.512734e+01
-2.512010e+01
-2.511288e+01
-2.510566e+01
-2.509844e+01
-2.509124e+01
-2.508405e+01
-2.507686e+01
-2.506969e+01
-2.506252e+01
-2.505536e+01
-2.504821e+01
-2.504107e+01
-2.503394e+01
-2.502682e+01
-2.501971e+01
-2.501260e+01
-2.500551e+01
-2.499843e+01
-2.499135e+01
-2.498429e+01
-2.497724e+01
-2.497020e+01
-2.496317e+01
-2.495614e+01
-2.494913e+01
-2.494213e+01
-2.493514e+01
-2.492817e+01
-2.492120e+01
-2.491425e+01
-2.490730e+01
-2.490037e+01
-2.489345e+01
-2.488654e+01
-2.487964e+01
-2.487276e+01
-2.486589e+01
-2.485903e+01
-2.485218e+01
-2.484534e+01
-2.483852e+01
-2.483172e+01
-2.482492e+01
-2.481814e+01
-2.481137e+01
-2.480461e+01
-2.479787e+01
-2.479115e+01
-2.478444e+01
-2.477774e+01
-2.477105e+01
-2.476439e+01
-2.475773e+01
-2.475109e+01
-2.474447e+01
-2.473786e+01
-2.473127e+01
-2.472470e+01
-2.471814e+01
-2.471159e+01
-2.470507e+01
-2.469856e+01
-2.469206e+01
-2.468559e+01
-2.467913e+01
-2.467269e+01
-2.466626e+01
-2.465986e+01
-2.465348e+01
-2.464711e+01
-2.464076e+01
-2.463443e+01
-2.462812e+01
-2.462183e+01
-2.461556e+01
-2.460931e+01
-2.460308e+01
-2.459687e+01
-2.459068e+01
-2.458451e+01
-2.457836e+01
-2.457224e+01
-2.456614e+01
-2.456006e+01
-2.455400e+01
-2.454797e+01
-2.454196e+01
-2.453597e+01
-2.453001e+01
-2.452407e+01
-2.451816e+01
-2.451227e+01
-2.450640e+01
-2.450056e+01
-2.449475e+01
-2.448897e+01
-2.448321e+01
-2.447747e+01
-2.447177e+01
-2.446609e+01
-2.446044e+01
-2.445482e+01
-2.444923e+01
-2.444367e+01
-2.443813e+01
-2.443263e+01
-2.442716e+01
-2.442172e+01
-2.441631e+01
-2.441093e+01
-2.440559e+01
-2.440027e+01
-2.439499e+01
-2.438975e+01
-2.438453e+01
-2.437935e+01
-2.437421e+01
-2.436910e+01
-2.436403e+01
-2.435900e+01
-2.435400e+01
-2.434904e+01
-2.434411e+01
-2.433923e+01
-2.433438e+01
-2.432958e+01
-2.432481e+01
-2.432008e+01
-2.431540e+01
-2.431075e+01
-2.430615e+01
-2.430159e+01
-2.429708e+01
-2.429261e+01
-2.428818e+01
-2.428379e+01
-2.427946e+01
-2.427517e+01
-2.427092e+01
-2.426673e+01
-2.426258e+01
-2.425848e+01
-2.425443e+01
-2.425043e+01
-2.424648e+01
-2.424258e+01
-2.423874e+01
-2.423494e+01
-2.423120e+01
-2.422752e+01
-2.422388e+01
-2.422031e+01
-2.421679e+01
-2.421332e+01
-2.420992e+01
-2.420657e+01
-2.420328e+01
-2.420005e+01
-2.419688e+01
-2.419377e+01
-2.419073e+01
-2.418774e+01
-2.418482e+01
-2.418197e+01
-2.417917e+01
-2.417645e+01
-2.417379e+01
-2.417120e+01
-2.416867e+01
-2.416622e+01
-2.416383e+01
-2.416151e+01
-2.415927e+01
-2.415710e+01
-2.415500e+01
-2.415297e+01
-2.415102e+01
-2.414914e+01
-2.414734e+01
-2.414562e+01
-2.414397e+01
-2.414241e+01
-2.414092e+01
-2.413952e+01
-2.413819e+01
-2.413696e+01
-2.413580e+01
-2.413474e+01
-2.413376e+01
-2.413287e+01
-2.413207e+01
-2.413136e+01
-2.413075e+01
-2.413025e+01
-2.412984e+01
-2.412953e+01
-2.412932e+01
-2.412922e+01
