# vtk DataFile Version 3.0
Monodomain MVF
ASCII
DATASET POLYDATA
POINTS 501 float
0.000000e+00 0.000000e+00 0.000000e+00
1.000000e-02 0.000000e+00 0.000000e+00
2.000000e-02 0.000000e+00 0.000000e+00
3.000000e-02 0.000000e+00 0.000000e+00
4.000000e-02 0.000000e+00 0.000000e+00
5.000000e-02 0.000000e+00 0.000000e+00
6.000000e-02 0.000000e+00 0.000000e+00
7.000000e-02 0.000000e+00 0.000000e+00
8.000000e-02 0.000000e+00 0.000000e+00
9.000000e-02 0.000000e+00 0.000000e+00
1.000000e-01 0.000000e+00 0.000000e+00
1.100000e-01 0.000000e+00 0.000000e+00
1.200000e-01 0.000000e+00 0.000000e+00
1.300000e-01 0.000000e+00 0.000000e+00
1.400000e-01 0.000000e+00 0.000000e+00
1.500000e-01 0.000000e+00 0.000000e+00
1.600000e-01 0.000000e+00 0.000000e+00
1.700000e-01 0.000000e+00 0.000000e+00
1.800000e-01 0.000000e+00 0.000000e+00
1.900000e-01 0.000000e+00 0.000000e+00
2.000000e-01 0.000000e+00 0.000000e+00
2.100000e-01 0.000000e+00 0.000000e+00
2.200000e-01 0.000000e+00 0.000000e+00
2.300000e-01 0.000000e+00 0.000000e+00
2.400000e-01 0.000000e+00 0.000000e+00
2.500000e-01 0.000000e+00 0.000000e+00
2.600000e-01 0.000000e+00 0.000000e+00
2.700000e-01 0.000000e+00 0.000000e+00
2.800000e-01 0.000000e+00 0.000000e+00
2.900000e-01 0.000000e+00 0.000000e+00
3.000000e-01 0.000000e+00 0.000000e+00
3.100000e-01 0.000000e+00 0.000000e+00
3.200000e-01 0.000000e+00 0.000000e+00
3.300000e-01 0.000000e+00 0.000000e+00
3.400000e-01 0.000000e+00 0.000000e+00
3.500000e-01 0.000000e+00 0.000000e+00
3.600000e-01 0.000000e+00 0.000000e+00
3.700000e-01 0.000000e+00 0.000000e+00
3.800000e-01 0.000000e+00 0.000000e+00
3.900000e-01 0.000000e+00 0.000000e+00
4.000000e-01 0.000000e+00 0.000000e+00
4.100000e-01 0.000000e+00 0.000000e+00
4.200000e-01 0.000000e+00 0.000000e+00
4.300000e-01 0.000000e+00 0.000000e+00
4.400000e-01 0.000000e+00 0.000000e+00
4.500000e-01 0.000000e+00 0.000000e+00
4.600000e-01 0.000000e+00 0.000000e+00
4.700000e-01 0.000000e+00 0.000000e+00
4.800000e-01 0.000000e+00 0.000000e+00
4.900000e-01 0.000000e+00 0.000000e+00
5.000000e-01 0.000000e+00 0.000000e+00
5.100000e-01 0.000000e+00 0.000000e+00
5.200000e-01 0.000000e+00 0.000000e+00
5.300000e-01 0.000000e+00 0.000000e+00
5.400000e-01 0.000000e+00 0.000000e+00
5.500000e-01 0.000000e+00 0.000000e+00
5.600000e-01 0.000000e+00 0.000000e+00
5.700000e-01 0.000000e+00 0.000000e+00
5.800000e-01 0.000000e+00 0.000000e+00
5.900000e-01 0.000000e+00 0.000000e+00
6.000000e-01 0.000000e+00 0.000000e+00
6.100000e-01 0.000000e+00 0.000000e+00
6.200000e-01 0.000000e+00 0.000000e+00
6.300000e-01 0.000000e+00 0.000000e+00
6.400000e-01 0.000000e+00 0.000000e+00
6.500000e-01 0.000000e+00 0.000000e+00
6.600000e-01 0.000000e+00 0.000000e+00
6.700000e-01 0.000000e+00 0.000000e+00
6.800000e-01 0.000000e+00 0.000000e+00
6.900000e-01 0.000000e+00 0.000000e+00
7.000000e-01 0.000000e+00 0.000000e+00
7.100000e-01 0.000000e+00 0.000000e+00
7.200000e-01 0.000000e+00 0.000000e+00
7.300000e-01 0.000000e+00 0.000000e+00
7.400000e-01 0.000000e+00 0.000000e+00
7.500000e-01 0.000000e+00 0.000000e+00
7.600000e-01 0.000000e+00 0.000000e+00
7.700000e-01 0.000000e+00 0.000000e+00
7.800000e-01 0.000000e+00 0.000000e+00
7.900000e-01 0.000000e+00 0.000000e+00
8.000000e-01 0.000000e+00 0.000000e+00
8.100000e-01 0.000000e+00 0.000000e+00
8.200000e-01 0.000000e+00 0.000000e+00
8.300000e-01 0.000000e+00 0.000000e+00
8.400000e-01 0.000000e+00 0.000000e+00
8.500000e-01 0.000000e+00 0.000000e+00
8.600000e-01 0.000000e+00 0.000000e+00
8.700000e-01 0.000000e+00 0.000000e+00
8.800000e-01 0.000000e+00 0.000000e+00
8.900000e-01 0.000000e+00 0.000000e+00
9.000000e-01 0.000000e+00 0.000000e+00
9.100000e-01 0.000000e+00 0.000000e+00
9.200000e-01 0.000000e+00 0.000000e+00
9.300000e-01 0.000000e+00 0.000000e+00
9.400000e-01 0.000000e+00 0.000000e+00
9.500000e-01 0.000000e+00 0.000000e+00
9.600000e-01 0.000000e+00 0.000000e+00
9.700000e-01 0.000000e+00 0.000000e+00
9.800000e-01 0.000000e+00 0.000000e+00
9.900000e-01 0.000000e+00 0.000000e+00
1.000000e+00 0.000000e+00 0.000000e+00
1.010000e+00 0.000000e+00 0.000000e+00
1.020000e+00 0.000000e+00 0.000000e+00
1.030000e+00 0.000000e+00 0.000000e+00
1.040000e+00 0.000000e+00 0.000000e+00
1.050000e+00 0.000000e+00 0.000000e+00
1.060000e+00 0.000000e+00 0.000000e+00
1.070000e+00 0.000000e+00 0.000000e+00
1.080000e+00 0.000000e+00 0.000000e+00
1.090000e+00 0.000000e+00 0.000000e+00
1.100000e+00 0.000000e+00 0.000000e+00
1.110000e+00 0.000000e+00 0.000000e+00
1.120000e+00 0.000000e+00 0.000000e+00
1.130000e+00 0.000000e+00 0.000000e+00
1.140000e+00 0.000000e+00 0.000000e+00
1.150000e+00 0.000000e+00 0.000000e+00
1.160000e+00 0.000000e+00 0.000000e+00
1.170000e+00 0.000000e+00 0.000000e+00
1.180000e+00 0.000000e+00 0.000000e+00
1.190000e+00 0.000000e+00 0.000000e+00
1.200000e+00 0.000000e+00 0.000000e+00
1.210000e+00 0.000000e+00 0.000000e+00
1.220000e+00 0.000000e+00 0.000000e+00
1.230000e+00 0.000000e+00 0.000000e+00
1.240000e+00 0.000000e+00 0.000000e+00
1.250000e+00 0.000000e+00 0.000000e+00
1.260000e+00 0.000000e+00 0.000000e+00
1.270000e+00 0.000000e+00 0.000000e+00
1.280000e+00 0.000000e+00 0.000000e+00
1.290000e+00 0.000000e+00 0.000000e+00
1.300000e+00 0.000000e+00 0.000000e+00
1.310000e+00 0.000000e+00 0.000000e+00
1.320000e+00 0.000000e+00 0.000000e+00
1.330000e+00 0.000000e+00 0.000000e+00
1.340000e+00 0.000000e+00 0.000000e+00
1.350000e+00 0.000000e+00 0.000000e+00
1.360000e+00 0.000000e+00 0.000000e+00
1.370000e+00 0.000000e+00 0.000000e+00
1.380000e+00 0.000000e+00 0.000000e+00
1.390000e+00 0.000000e+00 0.000000e+00
1.400000e+00 0.000000e+00 0.000000e+00
1.410000e+00 0.000000e+00 0.000000e+00
1.420000e+00 0.000000e+00 0.000000e+00
1.430000e+00 0.000000e+00 0.000000e+00
1.440000e+00 0.000000e+00 0.000000e+00
1.450000e+00 0.000000e+00 0.000000e+00
1.460000e+00 0.000000e+00 0.000000e+00
1.470000e+00 0.000000e+00 0.000000e+00
1.480000e+00 0.000000e+00 0.000000e+00
1.490000e+00 0.000000e+00 0.000000e+00
1.500000e+00 0.000000e+00 0.000000e+00
1.510000e+00 0.000000e+00 0.000000e+00
1.520000e+00 0.000000e+00 0.000000e+00
1.530000e+00 0.000000e+00 0.000000e+00
1.540000e+00 0.000000e+00 0.000000e+00
1.550000e+00 0.000000e+00 0.000000e+00
1.560000e+00 0.000000e+00 0.000000e+00
1.570000e+00 0.000000e+00 0.000000e+00
1.580000e+00 0.000000e+00 0.000000e+00
1.590000e+00 0.000000e+00 0.000000e+00
1.600000e+00 0.000000e+00 0.000000e+00
1.610000e+00 0.000000e+00 0.000000e+00
1.620000e+00 0.000000e+00 0.000000e+00
1.630000e+00 0.000000e+00 0.000000e+00
1.640000e+00 0.000000e+00 0.000000e+00
1.650000e+00 0.000000e+00 0.000000e+00
1.660000e+00 0.000000e+00 0.000000e+00
1.670000e+00 0.000000e+00 0.000000e+00
1.680000e+00 0.000000e+00 0.000000e+00
1.690000e+00 0.000000e+00 0.000000e+00
1.700000e+00 0.000000e+00 0.000000e+00
1.710000e+00 0.000000e+00 0.000000e+00
1.720000e+00 0.000000e+00 0.000000e+00
1.730000e+00 0.000000e+00 0.000000e+00
1.740000e+00 0.000000e+00 0.000000e+00
1.750000e+00 0.000000e+00 0.000000e+00
1.760000e+00 0.000000e+00 0.000000e+00
1.770000e+00 0.000000e+00 0.000000e+00
1.780000e+00 0.000000e+00 0.000000e+00
1.790000e+00 0.000000e+00 0.000000e+00
1.800000e+00 0.000000e+00 0.000000e+00
1.810000e+00 0.000000e+00 0.000000e+00
1.820000e+00 0.000000e+00 0.000000e+00
1.830000e+00 0.000000e+00 0.000000e+00
1.840000e+00 0.000000e+00 0.000000e+00
1.850000e+00 0.000000e+00 0.000000e+00
1.860000e+00 0.000000e+00 0.000000e+00
1.870000e+00 0.000000e+00 0.000000e+00
1.880000e+00 0.000000e+00 0.000000e+00
1.890000e+00 0.000000e+00 0.000000e+00
1.900000e+00 0.000000e+00 0.000000e+00
1.910000e+00 0.000000e+00 0.000000e+00
1.920000e+00 0.000000e+00 0.000000e+00
1.930000e+00 0.000000e+00 0.000000e+00
1.940000e+00 0.000000e+00 0.000000e+00
1.950000e+00 0.000000e+00 0.000000e+00
1.960000e+00 0.000000e+00 0.000000e+00
1.970000e+00 0.000000e+00 0.000000e+00
1.980000e+00 0.000000e+00 0.000000e+00
1.990000e+00 0.000000e+00 0.000000e+00
2.000000e+00 0.000000e+00 0.000000e+00
2.010000e+00 0.000000e+00 0.000000e+00
2.020000e+00 0.000000e+00 0.000000e+00
2.030000e+00 0.000000e+00 0.000000e+00
2.040000e+00 0.000000e+00 0.000000e+00
2.050000e+00 0.000000e+00 0.000000e+00
2.060000e+00 0.000000e+00 0.000000e+00
2.070000e+00 0.000000e+00 0.000000e+00
2.080000e+00 0.000000e+00 0.000000e+00
2.090000e+00 0.000000e+00 0.000000e+00
2.100000e+00 0.000000e+00 0.000000e+00
2.110000e+00 0.000000e+00 0.000000e+00
2.120000e+00 0.000000e+00 0.000000e+00
2.130000e+00 0.000000e+00 0.000000e+00
2.140000e+00 0.000000e+00 0.000000e+00
2.150000e+00 0.000000e+00 0.000000e+00
2.160000e+00 0.000000e+00 0.000000e+00
2.170000e+00 0.000000e+00 0.000000e+00
2.180000e+00 0.000000e+00 0.000000e+00
2.190000e+00 0.000000e+00 0.000000e+00
2.200000e+00 0.000000e+00 0.000000e+00
2.210000e+00 0.000000e+00 0.000000e+00
2.220000e+00 0.000000e+00 0.000000e+00
2.230000e+00 0.000000e+00 0.000000e+00
2.240000e+00 0.000000e+00 0.000000e+00
2.250000e+00 0.000000e+00 0.000000e+00
2.260000e+00 0.000000e+00 0.000000e+00
2.270000e+00 0.000000e+00 0.000000e+00
2.280000e+00 0.000000e+00 0.000000e+00
2.290000e+00 0.000000e+00 0.000000e+00
2.300000e+00 0.000000e+00 0.000000e+00
2.310000e+00 0.000000e+00 0.000000e+00
2.320000e+00 0.000000e+00 0.000000e+00
2.330000e+00 0.000000e+00 0.000000e+00
2.340000e+00 0.000000e+00 0.000000e+00
2.350000e+00 0.000000e+00 0.000000e+00
2.360000e+00 0.000000e+00 0.000000e+00
2.370000e+00 0.000000e+00 0.000000e+00
2.380000e+00 0.000000e+00 0.000000e+00
2.390000e+00 0.000000e+00 0.000000e+00
2.400000e+00 0.000000e+00 0.000000e+00
2.410000e+00 0.000000e+00 0.000000e+00
2.420000e+00 0.000000e+00 0.000000e+00
2.430000e+00 0.000000e+00 0.000000e+00
2.440000e+00 0.000000e+00 0.000000e+00
2.450000e+00 0.000000e+00 0.000000e+00
2.460000e+00 0.000000e+00 0.000000e+00
2.470000e+00 0.000000e+00 0.000000e+00
2.480000e+00 0.000000e+00 0.000000e+00
2.490000e+00 0.000000e+00 0.000000e+00
2.500000e+00 0.000000e+00 0.000000e+00
2.510000e+00 0.000000e+00 0.000000e+00
2.520000e+00 0.000000e+00 0.000000e+00
2.530000e+00 0.000000e+00 0.000000e+00
[...]
POINT_DATA 501
SCALARS vm float 1
LOOKUP_TABLE default
-8.462041e+01
-8.462039e+01
-8.462035e+01
-8.462030e+01
-8.462024e+01
-8.462006e+01
-8.461997e+01
-8.461988e+01
-8.461978e+01
-8.461967e+01
-8.461955e+01
-8.461943e+01
-8.461930e+01
-8.461917e+01
-8.461904e+01
-8.461890e+01
-8.461875e+01
-8.461860e+01
-8.461845e+01
-8.461829e+01
-8.461813e+01
-8.461797e+01
-8.461780e+01
-8.461763e+01
-8.461746e+01
-8.461728e+01
-8.461710e+01
-8.461692e+01
-8.461674e+01
-8.461655e+01
-8.461637e+01
-8.461618e+01
-8.461598e+01
-8.461579e+01
-8.461559e+01
-8.461539e+01
-8.461520e+01
-8.461499e+01
-8.461479e+01
-8.461459e+01
-8.461438e+01
-8.461417e+01
-8.461396e+01
-8.461375e+01
-8.461354e+01
-8.461333e+01
-8.461311e+01
-8.461289e+01
-8.461268e+01
-8.461246e+01
-8.461224e+01
-8.461201e+01
-8.461179e+01
-8.461157e+01
-8.461134e+01
-8.461111e+01
-8.461089e+01
-8.461066e+01
-8.461043e+01
-8.461020e+01
-8.460996e+01
-8.460973e+01
-8.460949e+01
-8.460926e+01
-8.460902e+01
-8.460878e+01
-8.460854e+01
-8.460830e+01
-8.460806e+01
-8.460781e+01
-8.460757e+01
-8.460732e+01
-8.460708e+01
-8.460683e+01
-8.460658e+01
-8.460633e+01
-8.460608e+01
-8.460583e+01
-8.460557e+01
-8.460532e+01
-8.460506e+01
-8.460480e+01
-8.460455e+01
-8.460429e+01
-8.460402e+01
-8.460376e+01
-8.460350e+01
-8.460323e+01
-8.460297e+01
-8.460270e+01
-8.460243e+01
-8.460216e+01
-8.460189e+01
-8.460162e+01
-8.460135e+01
-8.460107e+01
-8.460080e+01
-8.460052e+01
-8.460024e+01
-8.459997e+01
-8.459968e+01
-8.459940e+01
-8.459912e+01
-8.459884e+01
-8.459855e+01
-8.459826e+01
-8.459798e+01
-8.459769e+01
-8.459740e+01
-8.459710e+01
-8.459681e+01
-8.459652e+01
-8.459622e+01
-8.459592e+01
-8.459563e+01
-8.459533e+01
-8.459503e+01
-8.459472e+01
-8.459442e+01
-8.459412e+01
-8.459381e+01
-8.459350e+01
-8.459319e+01
-8.459288e+01
-8.459257e+01
-8.459226e+01
-8.459195e+01
-8.459163e+01
-8.459132e+01
-8.459100e+01
-8.459068e+01
-8.459036e+01
-8.459004e+01
-8.458971e+01
-8.458939e+01
-8.458907e+01
-8.458874e+01
-8.458841e+01
-8.458808e+01
-8.458775e+01
-8.458742e+01
-8.458709e+01
-8.458675e+01
-8.458642e+01
-8.458608e+01
-8.458574e+01
-8.458540e+01
-8.458506e+01
-8.458472e+01
-8.458437e+01
-8.458403e+01
-8.458368e+01
-8.458334e+01
-8.458299e+01
-8.458264e+01
-8.458229e+01
-8.458193e+01
-8.458158e+01
-8.458123e+01
-8.458087e+01
-8.458051e+01
-8.458015e+01
-8.457979e+01
-8.457943e+01
-8.457907e+01
-8.457870e+01
-8.457834e+01
-8.457797e+01
-8.457761e+01
-8.457724e+01
-8.457687e+01
-8.457650e+01
-8.457612e+01
-8.457575e+01
-8.457538e+01
-8.457500e+01
-8.457462e+01
-8.457424e+01
-8.457386e+01
-8.457348e+01
-8.457310e+01
-8.457272e+01
-8.457234e+01
-8.457195e+01
-8.457156e+01
-8.457118e+01
-8.457079e+01
-8.457040e+01
-8.457000e+01
-8.456961e+01
-8.456922e+01
-8.456882e+01
-8.456843e+01
-8.456803e+01
-8.456763e+01
-8.456723e+01
-8.456683e+01
-8.456643e+01
-8.456603e+01
-8.456563e+01
-8.456522e+01
-8.456482e+01
-8.456441e+01
-8.456400e+01
-8.456359e+01
-8.456318e+01
-8.456277e+01
-8.456236e+01
-8.456195e+01
-8.456154e+01
-8.456112e+01
-8.456071e+01
-8.456029e+01
-8.455987e+01
-8.455945e+01
-8.455903e+01
-8.455861e+01
-8.455819e+01
-8.455777e+01
-8.455734e+01
-8.455692e+01
-8.455650e+01
-8.455607e+01
-8.455564e+01
-8.455521e+01
-8.455479e+01
-8.455436e+01
-8.455393e+01
-8.455349e+01
-8.455306e+01
-8.455263e+01
-8.455220e+01
-8.455176e+01
-8.455133e+01
-8.455089e+01
-8.455045e+01
-8.455001e+01
-8.454958e+01
-8.454914e+01
-8.454870e+01
-8.454826e+01
-8.454781e+01
-8.454737e+01
-8.454693e+01
-8.454649e+01
-8.454604e+01
-8.454560e+01
-8.454515e+01
-8.454471e+01
-8.454426e+01
-8.454381e+01
-8.454336e+01
-8.454292e+01
-8.454247e+01
-8.454202e+01
-8.454157e+01
-8.454112e+01
-8.454066e+01
-8.454021e+01
-8.453976e+01
-8.453931e+01
-8.453885e+01
-8.453840e+01
-8.453795e+01
-8.453749e+01
-8.453704e+01
-8.453658e+01
-8.453613e+01
-8.453567e+01
-8.453521e+01
-8.453476e+01
-8.453430e+01
-8.453384e+01
-8.453338e+01
-8.453292e+01
-8.453247e+01
-8.453201e+01
-8.453155e+01
-8.453109e+01
-8.453063e+01
-8.453017e+01
-8.452971e+01
-8.452925e+01
-8.452879e+01
-8.452833e+01
-8.452787e+01
-8.452740e+01
-8.452694e+01
-8.452648e+01
-8.452602e+01
-8.452556e+01
-8.452510e+01
-8.452464e+01
-8.452418e+01
-8.452371e+01
-8.452325e+01
-8.452279e+01
-8.452233e+01
-8.452187e+01
-8.452141e+01
-8.452094e+01
-8.452048e+01
-8.452002e+01
-8.451956e+01
-8.451910e+01
-8.451864e+01
-8.451818e+01
-8.451772e+01
-8.451726e+01
-8.451680e+01
-8.451634e+01
-8.451588e+01
-8.451542e+01
-8.451496e+01
-8.451451e+01
-8.451405e+01
-8.451359e+01
-8.451313e+01
-8.451268e+01
-8.451222e+01
-8.451176e+01
-8.451131e+01
-8.451085e+01
-8.451040e+01
-8.450994e+01
-8.450949e+01
-8.450904e+01
-8.450858e+01
-8.450813e+01
-8.450768e+01
-8.450723e+01
-8.450678e+01
-8.450633e+01
-8.450588e+01
-8.450543e+01
-8.450499e+01
-8.450454e+01
-8.450409e+01
-8.450365e+01
-8.450320e+01
-8.450276e+01
-8.450232e+01
-8.450188e+01
-8.450144e+01
-8.450100e+01
-8.450056e+01
-8.450012e+01
-8.449968e+01
-8.449924e+01
-8.449881e+01
-8.449837e+01
-8.449794e+01
-8.449751e+01
-8.449708e+01
-8.449665e+01
-8.449622e+01
-8.449579e+01
-8.449536e+01
-8.449494e+01
-8.449451e+01
-8.449409e+01
-8.449367e+01
-8.449325e+01
-8.449283e+01
-8.449241e+01
-8.449199e+01
-8.449158e+01
-8.449116e+01
-8.449075e+01
-8.449034e+01
-8.448993e+01
-8.448952e+01
-8.448911e+01
-8.448871e+01
-8.448830e+01
-8.448790e+01
-8.448750e+01
-8.448710e+01
-8.448670e+01
-8.448631e+01
-8.448591e+01
-8.448552e+01
-8.448513e+01
-8.448474e+01
-8.448435e+01
-8.448397e+01
-8.448358e+01
-8.448320e+01
-8.448282e+01
-8.448244e+01
-8.448207e+01
-8.448169e+01
-8.448132e+01
-8.448095e+01
-8.448058e+01
-8.448021e+01
-8.447985e+01
-8.447949e+01
-8.447913e+01
-8.447877e+01
-8.447841e+01
-8.447806e+01
-8.447770e+01
-8.447735e+01
-8.447701e+01
-8.447666e+01
-8.447632e+01
-8.447598e+01
-8.447564e+01
-8.447530e+01
-8.447497e+01
-8.447464e+01
-8.447431e+01
-8.447398e+01
-8.447366e+01
-8.447334e+01
-8.447302e+01
-8.447271e+01
-8.447239e+01
-8.447208e+01
-8.447177e+01
-8.447147e+01
-8.447116e+01
-8.447087e+01
-8.447057e+01
-8.447027e+01
-8.446998e+01
-8.446969e+01
-8.446941e+01
-8.446912e+01
-8.446884e+01
-8.446857e+01
-8.446829e+01
-8.446802e+01
-8.446775e+01
-8.446749e+01
-8.446723e+01
-8.446697e+01
-8.446671e+01
-8.446646e+01
-8.446621e+01
-8.446597e+01
-8.446572e+01
-8.446548e+01
-8.446525e+01
-8.446502e+01
-8.446479e+01
-8.446456e+01
-8.446434e+01
-8.446412e+01
-8.446391e+01
-8.446370e+01
-8.446349e+01
-8.446328e+01
-8.446308e+01
-8.446289e+01
-8.446269e+01
-8.446250e+01
-8.446232e+01
-8.446213e+01
-8.446196e+01
-8.446178e+01
-8.446161e+01
-8.446144e+01
-8.446128e+01
-8.446112e+01
-8.446097e+01
-8.446082e+01
-8.446067e+01
-8.446053e+01
-8.446039e+01
-8.446025e+01
-8.446012e+01
-8.445999e+01
-8.445987e+01
-8.445975e+01
-8.445964e+01
-8.445952e+01
-8.445942e+01
-8.445931e+01
-8.445922e+01
-8.445912e+01
-8.445903e+01
-8.445894e+01
-8.445886e+01
-8.445878e+01
-8.445871e+01
-8.445863e+01
-8.445857e+01
-8.445851e+01
-8.445845e+01
-8.445839e+01
-8.445834e+01
-8.445830e+01
-8.445826e+01
-8.445822e+01
-8.445820e+01
-8.445817e+01
-8.445815e+01
-8.445814e+01
-8.445813e+01
