# vtk DataFile Version 3.0
Monodomain MVF
ASCII
DATASET POLYDATA
POINTS 501 float
0.000000e+00 0.000000e+00 0.000000e+00
1.000000e-02 0.000000e+00 0.000000e+00
2.000000e-02 0.000000e+00 0.000000e+00
3.000000e-02 0.000000e+00 0.000000e+00
4.000000e-02 0.000000e+00 0.000000e+00
5.000000e-02 0.000000e+00 0.000000e+00
6.000000e-02 0.000000e+00 0.000000e+00
7.000000e-02 0.000000e+00 0.000000e+00
8.000000e-02 0.000000e+00 0.000000e+00
9.000000e-02 0.000000e+00 0.000000e+00
1.000000e-01 0.000000e+00 0.000000e+00
1.100000e-01 0.000000e+00 0.000000e+00
1.200000e-01 0.000000e+00 0.000000e+00
1.300000e-01 0.000000e+00 0.000000e+00
1.400000e-01 0.000000e+00 0.000000e+00
1.500000e-01 0.000000e+00 0.000000e+00
1.600000e-01 0.000000e+00 0.000000e+00
1.700000e-01 0.000000e+00 0.000000e+00
1.800000e-01 0.000000e+00 0.000000e+00
1.900000e-01 0.000000e+00 0.000000e+00
2.000000e-01 0.000000e+00 0.000000e+00
2.100000e-01 0.000000e+00 0.000000e+00
2.200000e-01 0.000000e+00 0.000000e+00
2.300000e-01 0.000000e+00 0.000000e+00
2.400000e-01 0.000000e+00 0.000000e+00
2.500000e-01 0.000000e+00 0.000000e+00
2.600000e-01 0.000000e+00 0.000000e+00
2.700000e-01 0.000000e+00 0.000000e+00
2.800000e-01 0.000000e+00 0.000000e+00
2.900000e-01 0.000000e+00 0.000000e+00
3.000000e-01 0.000000e+00 0.000000e+00
3.100000e-01 0.000000e+00 0.000000e+00
3.200000e-01 0.000000e+00 0.000000e+00
3.300000e-01 0.000000e+00 0.000000e+00
3.400000e-01 0.000000e+00 0.000000e+00
3.500000e-01 0.000000e+00 0.000000e+00
3.600000e-01 0.000000e+00 0.000000e+00
3.700000e-01 0.000000e+00 0.000000e+00
3.800000e-01 0.000000e+00 0.000000e+00
3.900000e-01 0.000000e+00 0.000000e+00
4.000000e-01 0.000000e+00 0.000000e+00
4.100000e-01 0.000000e+00 0.000000e+00
4.200000e-01 0.000000e+00 0.000000e+00
4.300000e-01 0.000000e+00 0.000000e+00
4.400000e-01 0.000000e+00 0.000000e+00
4.500000e-01 0.000000e+00 0.000000e+00
4.600000e-01 0.000000e+00 0.000000e+00
4.700000e-01 0.000000e+00 0.000000e+00
4.800000e-01 0.000000e+00 0.000000e+00
4.900000e-01 0.000000e+00 0.000000e+00
5.000000e-01 0.000000e+00 0.000000e+00
5.100000e-01 0.000000e+00 0.000000e+00
5.200000e-01 0.000000e+00 0.000000e+00
5.300000e-01 0.000000e+00 0.000000e+00
5.400000e-01 0.000000e+00 0.000000e+00
5.500000e-01 0.000000e+00 0.000000e+00
5.600000e-01 0.000000e+00 0.000000e+00
5.700000e-01 0.000000e+00 0.000000e+00
5.800000e-01 0.000000e+00 0.000000e+00
5.900000e-01 0.000000e+00 0.000000e+00
6.000000e-01 0.000000e+00 0.000000e+00
6.100000e-01 0.000000e+00 0.000000e+00
6.200000e-01 0.000000e+00 0.000000e+00
6.300000e-01 0.000000e+00 0.000000e+00
6.400000e-01 0.000000e+00 0.000000e+00
6.500000e-01 0.000000e+00 0.000000e+00
6.600000e-01 0.000000e+00 0.000000e+00
6.700000e-01 0.000000e+00 0.000000e+00
6.800000e-01 0.000000e+00 0.000000e+00
6.900000e-01 0.000000e+00 0.000000e+00
7.000000e-01 0.000000e+00 0.000000e+00
7.100000e-01 0.000000e+00 0.000000e+00
7.200000e-01 0.000000e+00 0.000000e+00
7.300000e-01 0.000000e+00 0.000000e+00
7.400000e-01 0.000000e+00 0.000000e+00
7.500000e-01 0.000000e+00 0.000000e+00
7.600000e-01 0.000000e+00 0.000000e+00
7.700000e-01 0.000000e+00 0.000000e+00
7.800000e-01 0.000000e+00 0.000000e+00
7.900000e-01 0.000000e+00 0.000000e+00
8.000000e-01 0.000000e+00 0.000000e+00
8.100000e-01 0.000000e+00 0.000000e+00
8.200000e-01 0.000000e+00 0.000000e+00
8.300000e-01 0.000000e+00 0.000000e+00
8.400000e-01 0.000000e+00 0.000000e+00
8.500000e-01 0.000000e+00 0.000000e+00
8.600000e-01 0.000000e+00 0.000000e+00
8.700000e-01 0.000000e+00 0.000000e+00
8.800000e-01 0.000000e+00 0.000000e+00
8.900000e-01 0.000000e+00 0.000000e+00
9.000000e-01 0.000000e+00 0.000000e+00
9.100000e-01 0.000000e+00 0.000000e+00
9.200000e-01 0.000000e+00 0.000000e+00
9.300000e-01 0.000000e+00 0.000000e+00
9.400000e-01 0.000000e+00 0.000000e+00
9.500000e-01 0.000000e+00 0.000000e+00
9.600000e-01 0.000000e+00 0.000000e+00
9.700000e-01 0.000000e+00 0.000000e+00
9.800000e-01 0.000000e+00 0.000000e+00
9.900000e-01 0.000000e+00 0.000000e+00
1.000000e+00 0.000000e+00 0.000000e+00
1.010000e+00 0.000000e+00 0.000000e+00
1.020000e+00 0.000000e+00 0.000000e+00
1.030000e+00 0.000000e+00 0.000000e+00
1.040000e+00 0.000000e+00 0.000000e+00
1.050000e+00 0.000000e+00 0.000000e+00
1.060000e+00 0.000000e+00 0.000000e+00
1.070000e+00 0.000000e+00 0.000000e+00
1.080000e+00 0.000000e+00 0.000000e+00
1.090000e+00 0.000000e+00 0.000000e+00
1.100000e+00 0.000000e+00 0.000000e+00
1.110000e+00 0.000000e+00 0.000000e+00
1.120000e+00 0.000000e+00 0.000000e+00
1.130000e+00 0.000000e+00 0.000000e+00
1.140000e+00 0.000000e+00 0.000000e+00
1.150000e+00 0.000000e+00 0.000000e+00
1.160000e+00 0.000000e+00 0.000000e+00
1.170000e+00 0.000000e+00 0.000000e+00
1.180000e+00 0.000000e+00 0.000000e+00
1.190000e+00 0.000000e+00 0.000000e+00
1.200000e+00 0.000000e+00 0.000000e+00
1.210000e+00 0.000000e+00 0.000000e+00
1.220000e+00 0.000000e+00 0.000000e+00
1.230000e+00 0.000000e+00 0.000000e+00
1.240000e+00 0.000000e+00 0.000000e+00
1.250000e+00 0.000000e+00 0.000000e+00
1.260000e+00 0.000000e+00 0.000000e+00
1.270000e+00 0.000000e+00 0.000000e+00
1.280000e+00 0.000000e+00 0.000000e+00
1.290000e+00 0.000000e+00 0.000000e+00
1.300000e+00 0.000000e+00 0.000000e+00
1.310000e+00 0.000000e+00 0.000000e+00
1.320000e+00 0.000000e+00 0.000000e+00
1.330000e+00 0.000000e+00 0.000000e+00
1.340000e+00 0.000000e+00 0.000000e+00
1.350000e+00 0.000000e+00 0.000000e+00
1.360000e+00 0.000000e+00 0.000000e+00
1.370000e+00 0.000000e+00 0.000000e+00
1.380000e+00 0.000000e+00 0.000000e+00
1.390000e+00 0.000000e+00 0.000000e+00
1.400000e+00 0.000000e+00 0.000000e+00
1.410000e+00 0.000000e+00 0.000000e+00
1.420000e+00 0.000000e+00 0.000000e+00
1.430000e+00 0.000000e+00 0.000000e+00
1.440000e+00 0.000000e+00 0.000000e+00
1.450000e+00 0.000000e+00 0.000000e+00
1.460000e+00 0.000000e+00 0.000000e+00
1.470000e+00 0.000000e+00 0.000000e+00
1.480000e+00 0.000000e+00 0.000000e+00
1.490000e+00 0.000000e+00 0.000000e+00
1.500000e+00 0.000000e+00 0.000000e+00
1.510000e+00 0.000000e+00 0.000000e+00
1.520000e+00 0.000000e+00 0.000000e+00
1.530000e+00 0.000000e+00 0.000000e+00
1.540000e+00 0.000000e+00 0.000000e+00
1.550000e+00 0.000000e+00 0.000000e+00
1.560000e+00 0.000000e+00 0.000000e+00
1.570000e+00 0.000000e+00 0.000000e+00
1.580000e+00 0.000000e+00 0.000000e+00
1.590000e+00 0.000000e+00 0.000000e+00
1.600000e+00 0.000000e+00 0.000000e+00
1.610000e+00 0.000000e+00 0.000000e+00
1.620000e+00 0.000000e+00 0.000000e+00
1.630000e+00 0.000000e+00 0.000000e+00
1.640000e+00 0.000000e+00 0.000000e+00
1.650000e+00 0.000000e+00 0.000000e+00
1.660000e+00 0.000000e+00 0.000000e+00
1.670000e+00 0.000000e+00 0.000000e+00
1.680000e+00 0.000000e+00 0.000000e+00
1.690000e+00 0.000000e+00 0.000000e+00
1.700000e+00 0.000000e+00 0.000000e+00
1.710000e+00 0.000000e+00 0.000000e+00
1.720000e+00 0.000000e+00 0.000000e+00
1.730000e+00 0.000000e+00 0.000000e+00
1.740000e+00 0.000000e+00 0.000000e+00
1.750000e+00 0.000000e+00 0.000000e+00
1.760000e+00 0.000000e+00 0.000000e+00
1.770000e+00 0.000000e+00 0.000000e+00
1.780000e+00 0.000000e+00 0.000000e+00
1.790000e+00 0.000000e+00 0.000000e+00
1.800000e+00 0.000000e+00 0.000000e+00
1.810000e+00 0.000000e+00 0.000000e+00
1.820000e+00 0.000000e+00 0.000000e+00
1.830000e+00 0.000000e+00 0.000000e+00
1.840000e+00 0.000000e+00 0.000000e+00
1.850000e+00 0.000000e+00 0.000000e+00
1.860000e+00 0.000000e+00 0.000000e+00
1.870000e+00 0.000000e+00 0.000000e+00
1.880000e+00 0.000000e+00 0.000000e+00
1.890000e+00 0.000000e+00 0.000000e+00
1.900000e+00 0.000000e+00 0.000000e+00
1.910000e+00 0.000000e+00 0.000000e+00
1.920000e+00 0.000000e+00 0.000000e+00
1.930000e+00 0.000000e+00 0.000000e+00
1.940000e+00 0.000000e+00 0.000000e+00
1.950000e+00 0.000000e+00 0.000000e+00
1.960000e+00 0.000000e+00 0.000000e+00
1.970000e+00 0.000000e+00 0.000000e+00
1.980000e+00 0.000000e+00 0.000000e+00
1.990000e+00 0.000000e+00 0.000000e+00
2.000000e+00 0.000000e+00 0.000000e+00
2.010000e+00 0.000000e+00 0.000000e+00
2.020000e+00 0.000000e+00 0.000000e+00
2.030000e+00 0.000000e+00 0.000000e+00
2.040000e+00 0.000000e+00 0.000000e+00
2.050000e+00 0.000000e+00 0.000000e+00
2.060000e+00 0.000000e+00 0.000000e+00
2.070000e+00 0.000000e+00 0.000000e+00
2.080000e+00 0.000000e+00 0.000000e+00
2.090000e+00 0.000000e+00 0.000000e+00
2.100000e+00 0.000000e+00 0.000000e+00
2.110000e+00 0.000000e+00 0.000000e+00
2.120000e+00 0.000000e+00 0.000000e+00
2.130000e+00 0.000000e+00 0.000000e+00
2.140000e+00 0.000000e+00 0.000000e+00
2.150000e+00 0.000000e+00 0.000000e+00
2.160000e+00 0.000000e+00 0.000000e+00
2.170000e+00 0.000000e+00 0.000000e+00
2.180000e+00 0.000000e+00 0.000000e+00
2.190000e+00 0.000000e+00 0.000000e+00
2.200000e+00 0.000000e+00 0.000000e+00
2.210000e+00 0.000000e+00 0.000000e+00
2.220000e+00 0.000000e+00 0.000000e+00
2.230000e+00 0.000000e+00 0.000000e+00
2.240000e+00 0.000000e+00 0.000000e+00
2.250000e+00 0.000000e+00 0.000000e+00
2.260000e+00 0.000000e+00 0.000000e+00
2.270000e+00 0.000000e+00 0.000000e+00
2.280000e+00 0.000000e+00 0.000000e+00
2.290000e+00 0.000000e+00 0.000000e+00
2.300000e+00 0.000000e+00 0.000000e+00
2.310000e+00 0.000000e+00 0.000000e+00
2.320000e+00 0.000000e+00 0.000000e+00
2.330000e+00 0.000000e+00 0.000000e+00
2.340000e+00 0.000000e+00 0.000000e+00
2.350000e+00 0.000000e+00 0.000000e+00
2.360000e+00 0.000000e+00 0.000000e+00
2.370000e+00 0.000000e+00 0.000000e+00
2.380000e+00 0.000000e+00 0.000000e+00
2.390000e+00 0.000000e+00 0.000000e+00
2.400000e+00 0.000000e+00 0.000000e+00
2.410000e+00 0.000000e+00 0.000000e+00
2.420000e+00 0.000000e+00 0.000000e+00
2.430000e+00 0.000000e+00 0.000000e+00
2.440000e+00 0.000000e+00 0.000000e+00
2.450000e+00 0.000000e+00 0.000000e+00
2.460000e+00 0.000000e+00 0.000000e+00
2.470000e+00 0.000000e+00 0.000000e+00
2.480000e+00 0.000000e+00 0.000000e+00
2.490000e+00 0.000000e+00 0.000000e+00
2.500000e+00 0.000000e+00 0.000000e+00
2.510000e+00 0.000000e+00 0.000000e+00
2.520000e+00 0.000000e+00 0.000000e+00
2.530000e+00 0.000000e+00 0.000000e+00
[...]
POINT_DATA 501
SCALARS vm float 1
LOOKUP_TABLE default
-8.829089e+00
-8.828840e+00
-8.828342e+00
-8.827603e+00
-8.826633e+00
-8.825421e+00
-8.824037e+00
-8.822482e+00
-8.820758e+00
-8.818873e+00
-8.816837e+00
-8.814652e+00
-8.812329e+00
-8.809872e+00
-8.807285e+00
-8.804576e+00
-8.801751e+00
-8.798810e+00
-8.795764e+00
-8.792616e+00
-8.789365e+00
-8.786023e+00
-8.782592e+00
-8.779072e+00
-8.775470e+00
-8.771793e+00
-8.768037e+00
-8.764210e+00
-8.760317e+00
-8.756356e+00
-8.752333e+00
-8.748251e+00
-8.744112e+00
-8.739920e+00
-8.735674e+00
-8.731378e+00
-8.727039e+00
-8.722650e+00
-8.718219e+00
-8.713750e+00
-8.709239e+00
-8.704692e+00
-8.700110e+00
-8.695494e+00
-8.690848e+00
-8.686167e+00
-8.681458e+00
-8.676725e+00
-8.671961e+00
-8.667172e+00
-8.662362e+00
-8.657528e+00
-8.652673e+00
-8.647796e+00
-8.642900e+00
-8.637989e+00
-8.633055e+00
-8.628106e+00
-8.623144e+00
-8.618163e+00
-8.613170e+00
-8.608164e+00
-8.603144e+00
-8.598114e+00
-8.593070e+00
-8.588015e+00
-8.582954e+00
-8.577878e+00
-8.572795e+00
-8.567705e+00
-8.562605e+00
-8.557499e+00
-8.552384e+00
-8.547263e+00
-8.542139e+00
-8.537004e+00
-8.531864e+00
-8.526722e+00
-8.521573e+00
-8.516419e+00
-8.511263e+00
-8.506101e+00
-8.500939e+00
-8.495768e+00
-8.490596e+00
-8.485423e+00
-8.480245e+00
-8.475064e+00
-8.469884e+00
-8.464699e+00
-8.459515e+00
-8.454326e+00
-8.449136e+00
-8.443948e+00
-8.438755e+00
-8.433561e+00
-8.428369e+00
-8.423173e+00
-8.417979e+00
-8.412782e+00
-8.407584e+00
-8.402390e+00
-8.397191e+00
-8.391993e+00
-8.386797e+00
-8.381598e+00
-8.376400e+00
-8.371203e+00
-8.366005e+00
-8.360810e+00
-8.355611e+00
-8.350414e+00
-8.345220e+00
-8.340022e+00
-8.334826e+00
-8.329632e+00
-8.324437e+00
-8.319245e+00
-8.314050e+00
-8.308857e+00
-8.303668e+00
-8.298474e+00
-8.293283e+00
-8.288095e+00
-8.282905e+00
-8.277717e+00
-8.272529e+00
-8.267342e+00
-8.262159e+00
-8.256971e+00
-8.251786e+00
-8.246604e+00
-8.241421e+00
-8.236238e+00
-8.231058e+00
-8.225877e+00
-8.220700e+00
-8.215520e+00
-8.210342e+00
-8.205167e+00
-8.199990e+00
-8.194814e+00
-8.189641e+00
-8.184467e+00
-8.179296e+00
-8.174123e+00
-8.168951e+00
-8.163784e+00
-8.158613e+00
-8.153443e+00
-8.148277e+00
-8.143110e+00
-8.137944e+00
-8.132778e+00
-8.127613e+00
-8.122452e+00
-8.117287e+00
-8.112124e+00
-8.106964e+00
-8.101802e+00
-8.096641e+00
-8.091483e+00
-8.086323e+00
-8.081168e+00
-8.076008e+00
-8.070851e+00
-8.065697e+00
-8.060540e+00
-8.055384e+00
-8.050232e+00
-8.045077e+00
-8.039926e+00
-8.034772e+00
-8.029620e+00
-8.024471e+00
-8.019318e+00
-8.014167e+00
-8.009019e+00
-8.003869e+00
-7.998722e+00
-7.993573e+00
-7.988424e+00
-7.983280e+00
-7.978131e+00
-7.972984e+00
-7.967840e+00
-7.962693e+00
-7.957547e+00
-7.952404e+00
-7.947259e+00
-7.942117e+00
-7.936972e+00
-7.931828e+00
-7.926688e+00
-7.921544e+00
-7.916401e+00
-7.911260e+00
-7.906118e+00
-7.900978e+00
-7.895836e+00
-7.890695e+00
-7.885557e+00
-7.880415e+00
-7.875274e+00
-7.870136e+00
-7.864996e+00
-7.859858e+00
-7.854718e+00
-7.849579e+00
-7.844443e+00
-7.839303e+00
-7.834164e+00
-7.829028e+00
-7.823888e+00
-7.818750e+00
-7.813613e+00
-7.808476e+00
-7.803340e+00
-7.798201e+00
-7.793064e+00
-7.787929e+00
-7.782791e+00
-7.777653e+00
-7.772518e+00
-7.767380e+00
-7.762245e+00
-7.757108e+00
-7.751971e+00
-7.746837e+00
-7.741699e+00
-7.736562e+00
-7.731427e+00
-7.726290e+00
-7.721155e+00
-7.716018e+00
-7.710882e+00
-7.705748e+00
-7.700610e+00
-7.695473e+00
-7.690339e+00
-7.685202e+00
-7.680065e+00
-7.674930e+00
-7.669793e+00
-7.664659e+00
-7.659521e+00
-7.654384e+00
-7.649251e+00
-7.644113e+00
-7.638976e+00
-7.633841e+00
-7.628704e+00
-7.623569e+00
-7.618431e+00
-7.613294e+00
-7.608160e+00
-7.603022e+00
-7.597884e+00
-7.592749e+00
-7.587612e+00
-7.582475e+00
-7.577338e+00
-7.572201e+00
-7.567066e+00
-7.561928e+00
-7.556790e+00
-7.551655e+00
-7.546517e+00
-7.541379e+00
-7.536243e+00
-7.531105e+00
-7.525970e+00
-7.520831e+00
-7.515693e+00
-7.510558e+00
-7.505419e+00
-7.500281e+00
-7.495145e+00
-7.490007e+00
-7.484871e+00
-7.479732e+00
-7.474595e+00
-7.469460e+00
-7.464321e+00
-7.459183e+00
-7.454048e+00
-7.448910e+00
-7.443772e+00
-7.438636e+00
-7.433499e+00
-7.428364e+00
-7.423225e+00
-7.418088e+00
-7.412954e+00
-7.407816e+00
-7.402679e+00
-7.397544e+00
-7.392408e+00
-7.387274e+00
-7.382137e+00
-7.377002e+00
-7.371869e+00
-7.366733e+00
-7.361597e+00
-7.356465e+00
-7.351330e+00
-7.346198e+00
-7.341063e+00
-7.335930e+00
-7.330800e+00
-7.325666e+00
-7.320533e+00
-7.315404e+00
-7.310272e+00
-7.305141e+00
-7.300012e+00
-7.294882e+00
-7.289755e+00
-7.284625e+00
-7.279497e+00
-7.274372e+00
-7.269244e+00
-7.264117e+00
-7.258993e+00
-7.253869e+00
-7.248747e+00
-7.243623e+00
-7.238500e+00
-7.233382e+00
-7.228260e+00
-7.223140e+00
-7.218024e+00
-7.212906e+00
-7.207791e+00
-7.202675e+00
-7.197561e+00
-7.192451e+00
-7.187338e+00
-7.182228e+00
-7.177121e+00
-7.172013e+00
-7.166907e+00
-7.161803e+00
-7.156701e+00
-7.151602e+00
-7.146501e+00
-7.141403e+00
-7.136310e+00
-7.131214e+00
-7.126122e+00
-7.121033e+00
-7.115945e+00
-7.110861e+00
-7.105777e+00
-7.100695e+00
-7.095620e+00
-7.090542e+00
-7.085467e+00
-7.080398e+00
-7.075330e+00
-7.070266e+00
-7.065203e+00
-7.060143e+00
-7.055089e+00
-7.050035e+00
-7.044985e+00
-7.039941e+00
-7.034897e+00
-7.029858e+00
-7.024824e+00
-7.019793e+00
-7.014768e+00
-7.009743e+00
-7.004725e+00
-6.999713e+00
-6.994702e+00
-6.989697e+00
-6.984698e+00
-6.979703e+00
-6.974715e+00
-6.969730e+00
-6.964751e+00
-6.959781e+00
-6.954812e+00
-6.949850e+00
-6.944897e+00
-6.939948e+00
-6.935007e+00
-6.930071e+00
-6.925143e+00
-6.920225e+00
-6.915310e+00
-6.910404e+00
-6.905508e+00
-6.900617e+00
-6.895735e+00
-6.890863e+00
-6.886000e+00
-6.881146e+00
-6.876300e+00
-6.871464e+00
-6.866640e+00
-6.861823e+00
-6.857017e+00
-6.852225e+00
-6.847441e+00
-6.842671e+00
-6.837909e+00
-6.833161e+00
-6.828428e+00
-6.823704e+00
-6.818993e+00
-6.814299e+00
-6.809616e+00
-6.804948e+00
-6.800294e+00
-6.795655e+00
-6.791034e+00
-6.786425e+00
-6.781834e+00
-6.777262e+00
-6.772704e+00
-6.768164e+00
-6.763644e+00
-6.759142e+00
-6.754659e+00
-6.750195e+00
-6.745751e+00
-6.741331e+00
-6.736928e+00
-6.732547e+00
-6.728192e+00
-6.723857e+00
-6.719548e+00
-6.715260e+00
-6.710999e+00
-6.706765e+00
-6.702554e+00
-6.698370e+00
-6.694217e+00
-6.690089e+00
-6.685992e+00
-6.681923e+00
-6.677885e+00
-6.673881e+00
-6.669904e+00
-6.665962e+00
-6.662057e+00
-6.658182e+00
-6.654343e+00
-6.650543e+00
-6.646779e+00
-6.643054e+00
-6.639365e+00
-6.635718e+00
-6.632114e+00
-6.628549e+00
-6.625027e+00
-6.621551e+00
-6.618119e+00
-6.614734e+00
-6.611395e+00
-6.608105e+00
-6.604867e+00
-6.601676e+00
-6.598538e+00
-6.595455e+00
-6.592425e+00
-6.589451e+00
-6.586534e+00
-6.583676e+00
-6.580879e+00
-6.578140e+00
-6.575465e+00
-6.572857e+00
-6.570311e+00
-6.567833e+00
-6.565425e+00
-6.563087e+00
-6.560823e+00
-6.558630e+00
-6.556514e+00
-6.554479e+00
-6.552520e+00
-6.550644e+00
-6.548854e+00
-6.547150e+00
-6.545534e+00
-6.544012e+00
-6.542585e+00
-6.541255e+00
-6.540026e+00
-6.538906e+00
-6.537890e+00
-6.536986e+00
-6.536202e+00
-6.535553e+00
-6.535025e+00
-6.534620e+00
-6.534344e+00
-6.534205e+00
