# vtk DataFile Version 3.0
Monodomain MVF
ASCII
DATASET POLYDATA
POINTS 501 float
0.000000e+00 0.000000e+00 0.000000e+00
1.000000e-02 0.000000e+00 0.000000e+00
2.000000e-02 0.000000e+00 0.000000e+00
3.000000e-02 0.000000e+00 0.000000e+00
4.000000e-02 0.000000e+00 0.000000e+00
5.000000e-02 0.000000e+00 0.000000e+00
6.000000e-02 0.000000e+00 0.000000e+00
7.000000e-02 0.000000e+00 0.000000e+00
8.000000e-02 0.000000e+00 0.000000e+00
9.000000e-02 0.000000e+00 0.000000e+00
1.000000e-01 0.000000e+00 0.000000e+00
1.100000e-01 0.000000e+00 0.000000e+00
1.200000e-01 0.000000e+00 0.000000e+00
1.300000e-01 0.000000e+00 0.000000e+00
1.400000e-01 0.000000e+00 0.000000e+00
1.500000e-01 0.000000e+00 0.000000e+00
1.600000e-01 0.000000e+00 0.000000e+00
1.700000e-01 0.000000e+00 0.000000e+00
1.800000e-01 0.000000e+00 0.000000e+00
1.900000e-01 0.000000e+00 0.000000e+00
2.000000e-01 0.000000e+00 0.000000e+00
2.100000e-01 0.000000e+00 0.000000e+00
2.200000e-01 0.000000e+00 0.000000e+00
2.300000e-01 0.000000e+00 0.000000e+00
2.400000e-01 0.000000e+00 0.000000e+00
2.500000e-01 0.000000e+00 0.000000e+00
2.600000e-01 0.000000e+00 0.000000e+00
2.700000e-01 0.000000e+00 0.000000e+00
2.800000e-01 0.000000e+00 0.000000e+00
2.900000e-01 0.000000e+00 0.000000e+00
3.000000e-01 0.000000e+00 0.000000e+00
3.100000e-01 0.000000e+00 0.000000e+00
3.200000e-01 0.000000e+00 0.000000e+00
3.300000e-01 0.000000e+00 0.000000e+00
3.400000e-01 0.000000e+00 0.000000e+00
3.500000e-01 0.000000e+00 0.000000e+00
3.600000e-01 0.000000e+00 0.000000e+00
3.700000e-01 0.000000e+00 0.000000e+00
3.800000e-01 0.000000e+00 0.000000e+00
3.900000e-01 0.000000e+00 0.000000e+00
4.000000e-01 0.000000e+00 0.000000e+00
4.100000e-01 0.000000e+00 0.000000e+00
4.200000e-01 0.000000e+00 0.000000e+00
4.300000e-01 0.000000e+00 0.000000e+00
4.400000e-01 0.000000e+00 0.000000e+00
4.500000e-01 0.000000e+00 0.000000e+00
4.600000e-01 0.000000e+00 0.000000e+00
4.700000e-01 0.000000e+00 0.000000e+00
4.800000e-01 0.000000e+00 0.000000e+00
4.900000e-01 0.000000e+00 0.000000e+00
5.000000e-01 0.000000e+00 0.000000e+00
5.100000e-01 0.000000e+00 0.000000e+00
5.200000e-01 0.000000e+00 0.000000e+00
5.300000e-01 0.000000e+00 0.000000e+00
5.400000e-01 0.000000e+00 0.000000e+00
5.500000e-01 0.000000e+00 0.000000e+00
5.600000e-01 0.000000e+00 0.000000e+00
5.700000e-01 0.000000e+00 0.000000e+00
5.800000e-01 0.000000e+00 0.000000e+00
5.900000e-01 0.000000e+00 0.000000e+00
6.000000e-01 0.000000e+00 0.000000e+00
6.100000e-01 0.000000e+00 0.000000e+00
6.200000e-01 0.000000e+00 0.000000e+00
6.300000e-01 0.000000e+00 0.000000e+00
6.400000e-01 0.000000e+00 0.000000e+00
6.500000e-01 0.000000e+00 0.000000e+00
6.600000e-01 0.000000e+00 0.000000e+00
6.700000e-01 0.000000e+00 0.000000e+00
6.800000e-01 0.000000e+00 0.000000e+00
6.900000e-01 0.000000e+00 0.000000e+00
7.000000e-01 0.000000e+00 0.000000e+00
7.100000e-01 0.000000e+00 0.000000e+00
7.200000e-01 0.000000e+00 0.000000e+00
7.300000e-01 0.000000e+00 0.000000e+00
7.400000e-01 0.000000e+00 0.000000e+00
7.500000e-01 0.000000e+00 0.000000e+00
7.600000e-01 0.000000e+00 0.000000e+00
7.700000e-01 0.000000e+00 0.000000e+00
7.800000e-01 0.000000e+00 0.000000e+00
7.900000e-01 0.000000e+00 0.000000e+00
8.000000e-01 0.000000e+00 0.000000e+00
8.100000e-01 0.000000e+00 0.000000e+00
8.200000e-01 0.000000e+00 0.000000e+00
8.300000e-01 0.000000e+00 0.000000e+00
8.400000e-01 0.000000e+00 0.000000e+00
8.500000e-01 0.000000e+00 0.000000e+00
8.600000e-01 0.000000e+00 0.000000e+00
8.700000e-01 0.000000e+00 0.000000e+00
8.800000e-01 0.000000e+00 0.000000e+00
8.900000e-01 0.000000e+00 0.000000e+00
9.000000e-01 0.000000e+00 0.000000e+00
9.100000e-01 0.000000e+00 0.000000e+00
9.200000e-01 0.000000e+00 0.000000e+00
9.300000e-01 0.000000e+00 0.000000e+00
9.400000e-01 0.000000e+00 0.000000e+00
9.500000e-01 0.000000e+00 0.000000e+00
9.600000e-01 0.000000e+00 0.000000e+00
9.700000e-01 0.000000e+00 0.000000e+00
9.800000e-01 0.000000e+00 0.000000e+00
9.900000e-01 0.000000e+00 0.000000e+00
1.000000e+00 0.000000e+00 0.000000e+00
1.010000e+00 0.000000e+00 0.000000e+00
1.020000e+00 0.000000e+00 0.000000e+00
1.030000e+00 0.000000e+00 0.000000e+00
1.040000e+00 0.000000e+00 0.000000e+00
1.050000e+00 0.000000e+00 0.000000e+00
1.060000e+00 0.000000e+00 0.000000e+00
1.070000e+00 0.000000e+00 0.000000e+00
1.080000e+00 0.000000e+00 0.000000e+00
1.090000e+00 0.000000e+00 0.000000e+00
1.100000e+00 0.000000e+00 0.000000e+00
1.110000e+00 0.000000e+00 0.000000e+00
1.120000e+00 0.000000e+00 0.000000e+00
1.130000e+00 0.000000e+00 0.000000e+00
1.140000e+00 0.000000e+00 0.000000e+00
1.150000e+00 0.000000e+00 0.000000e+00
1.160000e+00 0.000000e+00 0.000000e+00
1.170000e+00 0.000000e+00 0.000000e+00
1.180000e+00 0.000000e+00 0.000000e+00
1.190000e+00 0.000000e+00 0.000000e+00
1.200000e+00 0.000000e+00 0.000000e+00
1.210000e+00 0.000000e+00 0.000000e+00
1.220000e+00 0.000000e+00 0.000000e+00
1.230000e+00 0.000000e+00 0.000000e+00
1.240000e+00 0.000000e+00 0.000000e+00
1.250000e+00 0.000000e+00 0.000000e+00
1.260000e+00 0.000000e+00 0.000000e+00
1.270000e+00 0.000000e+00 0.000000e+00
1.280000e+00 0.000000e+00 0.000000e+00
1.290000e+00 0.000000e+00 0.000000e+00
1.300000e+00 0.000000e+00 0.000000e+00
1.310000e+00 0.000000e+00 0.000000e+00
1.320000e+00 0.000000e+00 0.000000e+00
1.330000e+00 0.000000e+00 0.000000e+00
1.340000e+00 0.000000e+00 0.000000e+00
1.350000e+00 0.000000e+00 0.000000e+00
1.360000e+00 0.000000e+00 0.000000e+00
1.370000e+00 0.000000e+00 0.000000e+00
1.380000e+00 0.000000e+00 0.000000e+00
1.390000e+00 0.000000e+00 0.000000e+00
1.400000e+00 0.000000e+00 0.000000e+00
1.410000e+00 0.000000e+00 0.000000e+00
1.420000e+00 0.000000e+00 0.000000e+00
1.430000e+00 0.000000e+00 0.000000e+00
1.440000e+00 0.000000e+00 0.000000e+00
1.450000e+00 0.000000e+00 0.000000e+00
1.460000e+00 0.000000e+00 0.000000e+00
1.470000e+00 0.000000e+00 0.000000e+00
1.480000e+00 0.000000e+00 0.000000e+00
1.490000e+00 0.000000e+00 0.000000e+00
1.500000e+00 0.000000e+00 0.000000e+00
1.510000e+00 0.000000e+00 0.000000e+00
1.520000e+00 0.000000e+00 0.000000e+00
1.530000e+00 0.000000e+00 0.000000e+00
1.540000e+00 0.000000e+00 0.000000e+00
1.550000e+00 0.000000e+00 0.000000e+00
1.560000e+00 0.000000e+00 0.000000e+00
1.570000e+00 0.000000e+00 0.000000e+00
1.580000e+00 0.000000e+00 0.000000e+00
1.590000e+00 0.000000e+00 0.000000e+00
1.600000e+00 0.000000e+00 0.000000e+00
1.610000e+00 0.000000e+00 0.000000e+00
1.620000e+00 0.000000e+00 0.000000e+00
1.630000e+00 0.000000e+00 0.000000e+00
1.640000e+00 0.000000e+00 0.000000e+00
1.650000e+00 0.000000e+00 0.000000e+00
1.660000e+00 0.000000e+00 0.000000e+00
1.670000e+00 0.000000e+00 0.000000e+00
1.680000e+00 0.000000e+00 0.000000e+00
1.690000e+00 0.000000e+00 0.000000e+00
1.700000e+00 0.000000e+00 0.000000e+00
1.710000e+00 0.000000e+00 0.000000e+00
1.720000e+00 0.000000e+00 0.000000e+00
1.730000e+00 0.000000e+00 0.000000e+00
1.740000e+00 0.000000e+00 0.000000e+00
1.750000e+00 0.000000e+00 0.000000e+00
1.760000e+00 0.000000e+00 0.000000e+00
1.770000e+00 0.000000e+00 0.000000e+00
1.780000e+00 0.000000e+00 0.000000e+00
1.790000e+00 0.000000e+00 0.000000e+00
1.800000e+00 0.000000e+00 0.000000e+00
1.810000e+00 0.000000e+00 0.000000e+00
1.820000e+00 0.000000e+00 0.000000e+00
1.830000e+00 0.000000e+00 0.000000e+00
1.840000e+00 0.000000e+00 0.000000e+00
1.850000e+00 0.000000e+00 0.000000e+00
1.860000e+00 0.000000e+00 0.000000e+00
1.870000e+00 0.000000e+00 0.000000e+00
1.880000e+00 0.000000e+00 0.000000e+00
1.890000e+00 0.000000e+00 0.000000e+00
1.900000e+00 0.000000e+00 0.000000e+00
1.910000e+00 0.000000e+00 0.000000e+00
1.920000e+00 0.000000e+00 0.000000e+00
1.930000e+00 0.000000e+00 0.000000e+00
1.940000e+00 0.000000e+00 0.000000e+00
1.950000e+00 0.000000e+00 0.000000e+00
1.960000e+00 0.000000e+00 0.000000e+00
1.970000e+00 0.000000e+00 0.000000e+00
1.980000e+00 0.000000e+00 0.000000e+00
1.990000e+00 0.000000e+00 0.000000e+00
2.000000e+00 0.000000e+00 0.000000e+00
2.010000e+00 0.000000e+00 0.000000e+00
2.020000e+00 0.000000e+00 0.000000e+00
2.030000e+00 0.000000e+00 0.000000e+00
2.040000e+00 0.000000e+00 0.000000e+00
2.050000e+00 0.000000e+00 0.000000e+00
2.060000e+00 0.000000e+00 0.000000e+00
2.070000e+00 0.000000e+00 0.000000e+00
2.080000e+00 0.000000e+00 0.000000e+00
2.090000e+00 0.000000e+00 0.000000e+00
2.100000e+00 0.000000e+00 0.000000e+00
2.110000e+00 0.000000e+00 0.000000e+00
2.120000e+00 0.000000e+00 0.000000e+00
2.130000e+00 0.000000e+00 0.000000e+00
2.140000e+00 0.000000e+00 0.000000e+00
2.150000e+00 0.000000e+00 0.000000e+00
2.160000e+00 0.000000e+00 0.000000e+00
2.170000e+00 0.000000e+00 0.000000e+00
2.180000e+00 0.000000e+00 0.000000e+00
2.190000e+00 0.000000e+00 0.000000e+00
2.200000e+00 0.000000e+00 0.000000e+00
2.210000e+00 0.000000e+00 0.000000e+00
2.220000e+00 0.000000e+00 0.000000e+00
2.230000e+00 0.000000e+00 0.000000e+00
2.240000e+00 0.000000e+00 0.000000e+00
2.250000e+00 0.000000e+00 0.000000e+00
2.260000e+00 0.000000e+00 0.000000e+00
2.270000e+00 0.000000e+00 0.000000e+00
2.280000e+00 0.000000e+00 0.000000e+00
2.290000e+00 0.000000e+00 0.000000e+00
2.300000e+00 0.000000e+00 0.000000e+00
2.310000e+00 0.000000e+00 0.000000e+00
2.320000e+00 0.000000e+00 0.000000e+00
2.330000e+00 0.000000e+00 0.000000e+00
2.340000e+00 0.000000e+00 0.000000e+00
2.350000e+00 0.000000e+00 0.000000e+00
2.360000e+00 0.000000e+00 0.000000e+00
2.370000e+00 0.000000e+00 0.000000e+00
2.380000e+00 0.000000e+00 0.000000e+00
2.390000e+00 0.000000e+00 0.000000e+00
2.400000e+00 0.000000e+00 0.000000e+00
2.410000e+00 0.000000e+00 0.000000e+00
2.420000e+00 0.000000e+00 0.000000e+00
2.430000e+00 0.000000e+00 0.000000e+00
2.440000e+00 0.000000e+00 0.000000e+00
2.450000e+00 0.000000e+00 0.000000e+00
2.460000e+00 0.000000e+00 0.000000e+00
2.470000e+00 0.000000e+00 0.000000e+00
2.480000e+00 0.000000e+00 0.000000e+00
2.490000e+00 0.000000e+00 0.000000e+00
2.500000e+00 0.000000e+00 0.000000e+00
2.510000e+00 0.000000e+00 0.000000e+00
2.520000e+00 0.000000e+00 0.000000e+00
2.530000e+00 0.000000e+00 0.000000e+00
[...]
POINT_DATA 501
SCALARS vm float 1
LOOKUP_TABLE default
-1.687610e+00
-1.687319e+00
-1.686738e+00
-1.685876e+00
-1.684743e+00
-1.683327e+00
-1.681712e+00
-1.679903e+00
-1.677902e+00
-1.675713e+00
-1.673355e+00
-1.670827e+00
-1.668141e+00
-1.665305e+00
-1.662321e+00
-1.659199e+00
-1.655946e+00
-1.652564e+00
-1.649061e+00
-1.645445e+00
-1.641715e+00
-1.637879e+00
-1.633947e+00
-1.629914e+00
-1.625789e+00
-1.621582e+00
-1.617287e+00
-1.612911e+00
-1.608464e+00
-1.603941e+00
-1.599349e+00
-1.594694e+00
-1.589974e+00
-1.585197e+00
-1.580361e+00
-1.575469e+00
-1.570531e+00
-1.565539e+00
-1.560500e+00
-1.555421e+00
-1.550296e+00
-1.545131e+00
-1.539932e+00
-1.534692e+00
-1.529422e+00
-1.524115e+00
-1.518777e+00
-1.513415e+00
-1.508019e+00
-1.502596e+00
-1.497153e+00
-1.491683e+00
-1.486192e+00
-1.480678e+00
-1.475143e+00
-1.469593e+00
-1.464020e+00
-1.458430e+00
-1.452829e+00
-1.447208e+00
-1.441572e+00
-1.435927e+00
-1.430264e+00
-1.424595e+00
-1.418909e+00
-1.413213e+00
-1.407512e+00
-1.401795e+00
-1.396070e+00
-1.390342e+00
-1.384601e+00
-1.378856e+00
-1.373102e+00
-1.367341e+00
-1.361579e+00
-1.355806e+00
-1.350027e+00
-1.344250e+00
-1.338463e+00
-1.332672e+00
-1.326881e+00
-1.321082e+00
-1.315286e+00
-1.309481e+00
-1.303674e+00
-1.297869e+00
-1.292058e+00
-1.286244e+00
-1.280433e+00
-1.274615e+00
-1.268801e+00
-1.262982e+00
-1.257161e+00
-1.251345e+00
-1.245522e+00
-1.239698e+00
-1.233879e+00
-1.228055e+00
-1.222233e+00
-1.216410e+00
-1.210585e+00
-1.204766e+00
-1.198941e+00
-1.193116e+00
-1.187297e+00
-1.181473e+00
-1.175650e+00
-1.169831e+00
-1.164008e+00
-1.158191e+00
-1.152369e+00
-1.146548e+00
-1.140733e+00
-1.134913e+00
-1.129094e+00
-1.123280e+00
-1.117463e+00
-1.111650e+00
-1.105835e+00
-1.100019e+00
-1.094211e+00
-1.088397e+00
-1.082584e+00
-1.076777e+00
-1.070967e+00
-1.065159e+00
-1.059352e+00
-1.053544e+00
-1.047742e+00
-1.041936e+00
-1.036130e+00
-1.030330e+00
-1.024527e+00
-1.018724e+00
-1.012927e+00
-1.007126e+00
-1.001330e+00
-9.955311e-01
-9.897322e-01
-9.839399e-01
-9.781430e-01
-9.723468e-01
-9.665559e-01
-9.607618e-01
-9.549719e-01
-9.491798e-01
-9.433874e-01
-9.376015e-01
-9.318104e-01
-9.260200e-01
-9.202353e-01
-9.144469e-01
-9.086612e-01
-9.028757e-01
-8.970889e-01
-8.913081e-01
-8.855222e-01
-8.797367e-01
-8.739574e-01
-8.681736e-01
-8.623903e-01
-8.566116e-01
-8.508294e-01
-8.450520e-01
-8.392710e-01
-8.334897e-01
-8.277146e-01
-8.219344e-01
-8.161544e-01
-8.103795e-01
-8.046009e-01
-7.988256e-01
-7.930486e-01
-7.872705e-01
-7.814984e-01
-7.757208e-01
-7.699434e-01
-7.641713e-01
-7.583951e-01
-7.526211e-01
-7.468469e-01
-7.410710e-01
-7.353006e-01
-7.295248e-01
-7.237490e-01
-7.179789e-01
-7.122039e-01
-7.064289e-01
-7.006582e-01
-6.948837e-01
-6.891133e-01
-6.833391e-01
-6.775641e-01
-6.717949e-01
-6.660203e-01
-6.602454e-01
-6.544753e-01
-6.487012e-01
-6.429296e-01
-6.371563e-01
-6.313815e-01
-6.256123e-01
-6.198372e-01
-6.140618e-01
-6.082916e-01
-6.025169e-01
-5.967437e-01
-5.909704e-01
-5.851950e-01
-5.794240e-01
-5.736485e-01
-5.678720e-01
-5.621010e-01
-5.563247e-01
-5.505480e-01
-5.447754e-01
-5.389988e-01
-5.332257e-01
-5.274488e-01
-5.216708e-01
-5.158982e-01
-5.101199e-01
-5.043410e-01
-4.985666e-01
-4.927881e-01
-4.870115e-01
-4.812332e-01
-4.754533e-01
-4.696783e-01
-4.638974e-01
-4.581160e-01
-4.523395e-01
-4.465582e-01
-4.407777e-01
-4.349979e-01
-4.292154e-01
-4.234368e-01
-4.176536e-01
-4.118694e-01
-4.060902e-01
-4.003057e-01
-3.945204e-01
-3.887391e-01
-3.829537e-01
-3.771714e-01
-3.713852e-01
-3.655979e-01
-3.598157e-01
-3.540276e-01
-3.482387e-01
-3.424543e-01
-3.366655e-01
-3.308784e-01
-3.250896e-01
-3.192991e-01
-3.135132e-01
-3.077214e-01
-3.019289e-01
-2.961412e-01
-2.903487e-01
-2.845561e-01
-2.787652e-01
-2.729712e-01
-2.671808e-01
-2.613858e-01
-2.555896e-01
-2.497985e-01
-2.440019e-01
-2.382043e-01
-2.324109e-01
-2.266133e-01
-2.208184e-01
-2.150200e-01
-2.092204e-01
-2.034256e-01
-1.976251e-01
-1.918236e-01
-1.860267e-01
-1.802255e-01
-1.744257e-01
-1.686244e-01
-1.628215e-01
-1.570230e-01
-1.512187e-01
-1.454138e-01
-1.396137e-01
-1.338089e-01
-1.280034e-01
-1.222008e-01
-1.163948e-01
-1.105921e-01
-1.047852e-01
-9.897722e-02
-9.317424e-02
-8.736600e-02
-8.155678e-02
-7.575193e-02
-6.994323e-02
-6.413649e-02
-5.832748e-02
-5.251714e-02
-4.671170e-02
-4.090067e-02
-3.508894e-02
-2.928201e-02
-2.347097e-02
-1.766127e-02
-1.185067e-02
-6.038633e-03
-2.306293e-04
5.581766e-03
1.139505e-02
1.720323e-02
2.301586e-02
2.882895e-02
3.463864e-02
4.045135e-02
4.626068e-02
5.207366e-02
5.788722e-02
6.369552e-02
6.950863e-02
7.532236e-02
8.113121e-02
8.694336e-02
9.275330e-02
9.856482e-02
1.043771e-01
1.101841e-01
1.159960e-01
1.218081e-01
1.276147e-01
1.334248e-01
1.392331e-01
1.450414e-01
1.508504e-01
1.566549e-01
1.624629e-01
1.682710e-01
1.740731e-01
1.798790e-01
1.856845e-01
1.914856e-01
1.972887e-01
2.030878e-01
2.088893e-01
2.146903e-01
2.204851e-01
2.262836e-01
2.320817e-01
2.378737e-01
2.436676e-01
2.494584e-01
2.552493e-01
2.610395e-01
2.668233e-01
2.726105e-01
2.783963e-01
2.841753e-01
2.899560e-01
2.957337e-01
3.015094e-01
3.072840e-01
3.130526e-01
3.188227e-01
3.245910e-01
3.303515e-01
3.361137e-01
3.418740e-01
3.476267e-01
3.533796e-01
3.591265e-01
3.648732e-01
3.706170e-01
3.763523e-01
3.820886e-01
3.878219e-01
3.935463e-01
3.992699e-01
4.049876e-01
4.107022e-01
4.164129e-01
4.221144e-01
4.278158e-01
4.335125e-01
4.391989e-01
4.448835e-01
4.505615e-01
4.562335e-01
4.619004e-01
4.675577e-01
4.732121e-01
4.788604e-01
4.844966e-01
4.901299e-01
4.957569e-01
5.013713e-01
5.069809e-01
5.125803e-01
5.181732e-01
5.237580e-01
5.293290e-01
5.348953e-01
5.404527e-01
5.459952e-01
5.515306e-01
5.570542e-01
5.625677e-01
5.680706e-01
5.735577e-01
5.790373e-01
5.845049e-01
5.899547e-01
5.953949e-01
6.008208e-01
6.062323e-01
6.116302e-01
6.170100e-01
6.223779e-01
6.277304e-01
6.330617e-01
6.383802e-01
6.436826e-01
6.489622e-01
6.542263e-01
6.594697e-01
6.646953e-01
6.699013e-01
6.750820e-01
6.802460e-01
6.853886e-01
6.905037e-01
6.955986e-01
7.006684e-01
7.057143e-01
7.107353e-01
7.157266e-01
7.206946e-01
7.256356e-01
7.305432e-01
7.354252e-01
7.402763e-01
7.450959e-01
7.498843e-01
7.546372e-01
7.593596e-01
7.640475e-01
7.686950e-01
7.733101e-01
7.778885e-01
7.824233e-01
7.869210e-01
7.913764e-01
7.957913e-01
8.001633e-01
8.044866e-01
8.087688e-01
8.130046e-01
8.171876e-01
8.213239e-01
8.254086e-01
8.294418e-01
8.334215e-01
8.373431e-01
8.412115e-01
8.450224e-01
8.487690e-01
8.524578e-01
8.560836e-01
8.596433e-01
8.631376e-01
8.665613e-01
8.699182e-01
8.732030e-01
8.764096e-01
8.795444e-01
8.826020e-01
8.855746e-01
8.884674e-01
8.912738e-01
8.939946e-01
8.966253e-01
8.991593e-01
9.016024e-01
9.039469e-01
9.061849e-01
9.083210e-01
9.103496e-01
9.122618e-01
9.140581e-01
9.157350e-01
9.172851e-01
9.187005e-01
9.199880e-01
9.211316e-01
9.221210e-01
9.229437e-01
9.236167e-01
9.241345e-01
9.244870e-01
9.246655e-01
