# vtk DataFile Version 3.0
Monodomain MVF
ASCII
DATASET POLYDATA
POINTS 501 float
0.000000e+00 0.000000e+00 0.000000e+00
1.000000e-02 0.000000e+00 0.000000e+00
2.000000e-02 0.000000e+00 0.000000e+00
3.000000e-02 0.000000e+00 0.000000e+00
4.000000e-02 0.000000e+00 0.000000e+00
5.000000e-02 0.000000e+00 0.000000e+00
6.000000e-02 0.000000e+00 0.000000e+00
7.000000e-02 0.000000e+00 0.000000e+00
8.000000e-02 0.000000e+00 0.000000e+00
9.000000e-02 0.000000e+00 0.000000e+00
1.000000e-01 0.000000e+00 0.000000e+00
1.100000e-01 0.000000e+00 0.000000e+00
1.200000e-01 0.000000e+00 0.000000e+00
1.300000e-01 0.000000e+00 0.000000e+00
1.400000e-01 0.000000e+00 0.000000e+00
1.500000e-01 0.000000e+00 0.000000e+00
1.600000e-01 0.000000e+00 0.000000e+00
1.700000e-01 0.000000e+00 0.000000e+00
1.800000e-01 0.000000e+00 0.000000e+00
1.900000e-01 0.000000e+00 0.000000e+00
2.000000e-01 0.000000e+00 0.000000e+00
2.100000e-01 0.000000e+00 0.000000e+00
2.200000e-01 0.000000e+00 0.000000e+00
2.300000e-01 0.000000e+00 0.000000e+00
2.400000e-01 0.000000e+00 0.000000e+00
2.500000e-01 0.000000e+00 0.000000e+00
2.600000e-01 0.000000e+00 0.000000e+00
2.700000e-01 0.000000e+00 0.000000e+00
2.800000e-01 0.000000e+00 0.000000e+00
2.900000e-01 0.000000e+00 0.000000e+00
3.000000e-01 0.000000e+00 0.000000e+00
3.100000e-01 0.000000e+00 0.000000e+00
3.200000e-01 0.000000e+00 0.000000e+00
3.300000e-01 0.000000e+00 0.000000e+00
3.400000e-01 0.000000e+00 0.000000e+00
3.500000e-01 0.000000e+00 0.000000e+00
3.600000e-01 0.000000e+00 0.000000e+00
3.700000e-01 0.000000e+00 0.000000e+00
3.800000e-01 0.000000e+00 0.000000e+00
3.900000e-01 0.000000e+00 0.000000e+00
4.000000e-01 0.000000e+00 0.000000e+00
4.100000e-01 0.000000e+00 0.000000e+00
4.200000e-01 0.000000e+00 0.000000e+00
4.300000e-01 0.000000e+00 0.000000e+00
4.400000e-01 0.000000e+00 0.000000e+00
4.500000e-01 0.000000e+00 0.000000e+00
4.600000e-01 0.000000e+00 0.000000e+00
4.700000e-01 0.000000e+00 0.000000e+00
4.800000e-01 0.000000e+00 0.000000e+00
4.900000e-01 0.000000e+00 0.000000e+00
5.000000e-01 0.000000e+00 0.000000e+00
5.100000e-01 0.000000e+00 0.000000e+00
5.200000e-01 0.000000e+00 0.000000e+00
5.300000e-01 0.000000e+00 0.000000e+00
5.400000e-01 0.000000e+00 0.000000e+00
5.500000e-01 0.000000e+00 0.000000e+00
5.600000e-01 0.000000e+00 0.000000e+00
5.700000e-01 0.000000e+00 0.000000e+00
5.800000e-01 0.000000e+00 0.000000e+00
5.900000e-01 0.000000e+00 0.000000e+00
6.000000e-01 0.000000e+00 0.000000e+00
6.100000e-01 0.000000e+00 0.000000e+00
6.200000e-01 0.000000e+00 0.000000e+00
6.300000e-01 0.000000e+00 0.000000e+00
6.400000e-01 0.000000e+00 0.000000e+00
6.500000e-01 0.000000e+00 0.000000e+00
6.600000e-01 0.000000e+00 0.000000e+00
6.700000e-01 0.000000e+00 0.000000e+00
6.800000e-01 0.000000e+00 0.000000e+00
6.900000e-01 0.000000e+00 0.000000e+00
7.000000e-01 0.000000e+00 0.000000e+00
7.100000e-01 0.000000e+00 0.000000e+00
7.200000e-01 0.000000e+00 0.000000e+00
7.300000e-01 0.000000e+00 0.000000e+00
7.400000e-01 0.000000e+00 0.000000e+00
7.500000e-01 0.000000e+00 0.000000e+00
7.600000e-01 0.000000e+00 0.000000e+00
7.700000e-01 0.000000e+00 0.000000e+00
7.800000e-01 0.000000e+00 0.000000e+00
7.900000e-01 0.000000e+00 0.000000e+00
8.000000e-01 0.000000e+00 0.000000e+00
8.100000e-01 0.000000e+00 0.000000e+00
8.200000e-01 0.000000e+00 0.000000e+00
8.300000e-01 0.000000e+00 0.000000e+00
8.400000e-01 0.000000e+00 0.000000e+00
8.500000e-01 0.000000e+00 0.000000e+00
8.600000e-01 0.000000e+00 0.000000e+00
8.700000e-01 0.000000e+00 0.000000e+00
8.800000e-01 0.000000e+00 0.000000e+00
8.900000e-01 0.000000e+00 0.000000e+00
9.000000e-01 0.000000e+00 0.000000e+00
9.100000e-01 0.000000e+00 0.000000e+00
9.200000e-01 0.000000e+00 0.000000e+00
9.300000e-01 0.000000e+00 0.000000e+00
9.400000e-01 0.000000e+00 0.000000e+00
9.500000e-01 0.000000e+00 0.000000e+00
9.600000e-01 0.000000e+00 0.000000e+00
9.700000e-01 0.000000e+00 0.000000e+00
9.800000e-01 0.000000e+00 0.000000e+00
9.900000e-01 0.000000e+00 0.000000e+00
1.000000e+00 0.000000e+00 0.000000e+00
1.010000e+00 0.000000e+00 0.000000e+00
1.020000e+00 0.000000e+00 0.000000e+00
1.030000e+00 0.000000e+00 0.000000e+00
1.040000e+00 0.000000e+00 0.000000e+00
1.050000e+00 0.000000e+00 0.000000e+00
1.060000e+00 0.000000e+00 0.000000e+00
1.070000e+00 0.000000e+00 0.000000e+00
1.080000e+00 0.000000e+00 0.000000e+00
1.090000e+00 0.000000e+00 0.000000e+00
1.100000e+00 0.000000e+00 0.000000e+00
1.110000e+00 0.000000e+00 0.000000e+00
1.120000e+00 0.000000e+00 0.000000e+00
1.130000e+00 0.000000e+00 0.000000e+00
1.140000e+00 0.000000e+00 0.000000e+00
1.150000e+00 0.000000e+00 0.000000e+00
1.160000e+00 0.000000e+00 0.000000e+00
1.170000e+00 0.000000e+00 0.000000e+00
1.180000e+00 0.000000e+00 0.000000e+00
1.190000e+00 0.000000e+00 0.000000e+00
1.200000e+00 0.000000e+00 0.000000e+00
1.210000e+00 0.000000e+00 0.000000e+00
1.220000e+00 0.000000e+00 0.000000e+00
1.230000e+00 0.000000e+00 0.000000e+00
1.240000e+00 0.000000e+00 0.000000e+00
1.250000e+00 0.000000e+00 0.000000e+00
1.260000e+00 0.000000e+00 0.000000e+00
1.270000e+00 0.000000e+00 0.000000e+00
1.280000e+00 0.000000e+00 0.000000e+00
1.290000e+00 0.000000e+00 0.000000e+00
1.300000e+00 0.000000e+00 0.000000e+00
1.310000e+00 0.000000e+00 0.000000e+00
1.320000e+00 0.000000e+00 0.000000e+00
1.330000e+00 0.000000e+00 0.000000e+00
1.340000e+00 0.000000e+00 0.000000e+00
1.350000e+00 0.000000e+00 0.000000e+00
1.360000e+00 0.000000e+00 0.000000e+00
1.370000e+00 0.000000e+00 0.000000e+00
1.380000e+00 0.000000e+00 0.000000e+00
1.390000e+00 0.000000e+00 0.000000e+00
1.400000e+00 0.000000e+00 0.000000e+00
1.410000e+00 0.000000e+00 0.000000e+00
1.420000e+00 0.000000e+00 0.000000e+00
1.430000e+00 0.000000e+00 0.000000e+00
1.440000e+00 0.000000e+00 0.000000e+00
1.450000e+00 0.000000e+00 0.000000e+00
1.460000e+00 0.000000e+00 0.000000e+00
1.470000e+00 0.000000e+00 0.000000e+00
1.480000e+00 0.000000e+00 0.000000e+00
1.490000e+00 0.000000e+00 0.000000e+00
1.500000e+00 0.000000e+00 0.000000e+00
1.510000e+00 0.000000e+00 0.000000e+00
1.520000e+00 0.000000e+00 0.000000e+00
1.530000e+00 0.000000e+00 0.000000e+00
1.540000e+00 0.000000e+00 0.000000e+00
1.550000e+00 0.000000e+00 0.000000e+00
1.560000e+00 0.000000e+00 0.000000e+00
1.570000e+00 0.000000e+00 0.000000e+00
1.580000e+00 0.000000e+00 0.000000e+00
1.590000e+00 0.000000e+00 0.000000e+00
1.600000e+00 0.000000e+00 0.000000e+00
1.610000e+00 0.000000e+00 0.000000e+00
1.620000e+00 0.000000e+00 0.000000e+00
1.630000e+00 0.000000e+00 0.000000e+00
1.640000e+00 0.000000e+00 0.000000e+00
1.650000e+00 0.000000e+00 0.000000e+00
1.660000e+00 0.000000e+00 0.000000e+00
1.670000e+00 0.000000e+00 0.000000e+00
1.680000e+00 0.000000e+00 0.000000e+00
1.690000e+00 0.000000e+00 0.000000e+00
1.700000e+00 0.000000e+00 0.000000e+00
1.710000e+00 0.000000e+00 0.000000e+00
1.720000e+00 0.000000e+00 0.000000e+00
1.730000e+00 0.000000e+00 0.000000e+00
1.740000e+00 0.000000e+00 0.000000e+00
1.750000e+00 0.000000e+00 0.000000e+00
1.760000e+00 0.000000e+00 0.000000e+00
1.770000e+00 0.000000e+00 0.000000e+00
1.780000e+00 0.000000e+00 0.000000e+00
1.790000e+00 0.000000e+00 0.000000e+00
1.800000e+00 0.000000e+00 0.000000e+00
1.810000e+00 0.000000e+00 0.000000e+00
1.820000e+00 0.000000e+00 0.000000e+00
1.830000e+00 0.000000e+00 0.000000e+00
1.840000e+00 0.000000e+00 0.000000e+00
1.850000e+00 0.000000e+00 0.000000e+00
1.860000e+00 0.000000e+00 0.000000e+00
1.870000e+00 0.000000e+00 0.000000e+00
1.880000e+00 0.000000e+00 0.000000e+00
1.890000e+00 0.000000e+00 0.000000e+00
1.900000e+00 0.000000e+00 0.000000e+00
1.910000e+00 0.000000e+00 0.000000e+00
1.920000e+00 0.000000e+00 0.000000e+00
1.930000e+00 0.000000e+00 0.000000e+00
1.940000e+00 0.000000e+00 0.000000e+00
1.950000e+00 0.000000e+00 0.000000e+00
1.960000e+00 0.000000e+00 0.000000e+00
1.970000e+00 0.000000e+00 0.000000e+00
1.980000e+00 0.000000e+00 0.000000e+00
1.990000e+00 0.000000e+00 0.000000e+00
2.000000e+00 0.000000e+00 0.000000e+00
2.010000e+00 0.000000e+00 0.000000e+00
2.020000e+00 0.000000e+00 0.000000e+00
2.030000e+00 0.000000e+00 0.000000e+00
2.040000e+00 0.000000e+00 0.000000e+00
2.050000e+00 0.000000e+00 0.000000e+00
2.060000e+00 0.000000e+00 0.000000e+00
2.070000e+00 0.000000e+00 0.000000e+00
2.080000e+00 0.000000e+00 0.000000e+00
2.090000e+00 0.000000e+00 0.000000e+00
2.100000e+00 0.000000e+00 0.000000e+00
2.110000e+00 0.000000e+00 0.000000e+00
2.120000e+00 0.000000e+00 0.000000e+00
2.130000e+00 0.000000e+00 0.000000e+00
2.140000e+00 0.000000e+00 0.000000e+00
2.150000e+00 0.000000e+00 0.000000e+00
2.160000e+00 0.000000e+00 0.000000e+00
2.170000e+00 0.000000e+00 0.000000e+00
2.180000e+00 0.000000e+00 0.000000e+00
2.190000e+00 0.000000e+00 0.000000e+00
2.200000e+00 0.000000e+00 0.000000e+00
2.210000e+00 0.000000e+00 0.000000e+00
2.220000e+00 0.000000e+00 0.000000e+00
2.230000e+00 0.000000e+00 0.000000e+00
2.240000e+00 0.000000e+00 0.000000e+00
2.250000e+00 0.000000e+00 0.000000e+00
2.260000e+00 0.000000e+00 0.000000e+00
2.270000e+00 0.000000e+00 0.000000e+00
2.280000e+00 0.000000e+00 0.000000e+00
2.290000e+00 0.000000e+00 0.000000e+00
2.300000e+00 0.000000e+00 0.000000e+00
2.310000e+00 0.000000e+00 0.000000e+00
2.320000e+00 0.000000e+00 0.000000e+00
2.330000e+00 0.000000e+00 0.000000e+00
2.340000e+00 0.000000e+00 0.000000e+00
2.350000e+00 0.000000e+00 0.000000e+00
2.360000e+00 0.000000e+00 0.000000e+00
2.370000e+00 0.000000e+00 0.000000e+00
2.380000e+00 0.000000e+00 0.000000e+00
2.390000e+00 0.000000e+00 0.000000e+00
2.400000e+00 0.000000e+00 0.000000e+00
2.410000e+00 0.000000e+00 0.000000e+00
2.420000e+00 0.000000e+00 0.000000e+00
2.430000e+00 0.000000e+00 0.000000e+00
2.440000e+00 0.000000e+00 0.000000e+00
2.450000e+00 0.000000e+00 0.000000e+00
2.460000e+00 0.000000e+00 0.000000e+00
2.470000e+00 0.000000e+00 0.000000e+00
2.480000e+00 0.000000e+00 0.000000e+00
2.490000e+00 0.000000e+00 0.000000e+00
2.500000e+00 0.000000e+00 0.000000e+00
2.510000e+00 0.000000e+00 0.000000e+00
2.520000e+00 0.000000e+00 0.000000e+00
2.530000e+00 0.000000e+00 0.000000e+00
[...]
POINT_DATA 501
SCALARS vm float 1
LOOKUP_TABLE default
-1.206791e+01
-1.206768e+01
-1.206722e+01
-1.206653e+01
-1.206563e+01
-1.206450e+01
-1.206321e+01
-1.206175e+01
-1.206014e+01
-1.205837e+01
-1.205646e+01
-1.205440e+01
-1.205222e+01
-1.204991e+01
-1.204747e+01
-1.204491e+01
-1.204224e+01
-1.203946e+01
-1.203658e+01
-1.203360e+01
-1.203052e+01
-1.202735e+01
-1.202409e+01
-1.202075e+01
-1.201733e+01
-1.201383e+01
-1.201026e+01
-1.200661e+01
-1.200290e+01
-1.199913e+01
-1.199529e+01
-1.199139e+01
-1.198744e+01
-1.198343e+01
-1.197937e+01
-1.197526e+01
-1.197111e+01
-1.196691e+01
-1.196266e+01
-1.195837e+01
-1.195405e+01
-1.194968e+01
-1.194528e+01
-1.194085e+01
-1.193638e+01
-1.193188e+01
-1.192735e+01
-1.192280e+01
-1.191821e+01
-1.191359e+01
-1.190896e+01
-1.190430e+01
-1.189961e+01
-1.189491e+01
-1.189018e+01
-1.188544e+01
-1.188067e+01
-1.187589e+01
-1.187109e+01
-1.186627e+01
-1.186144e+01
-1.185659e+01
-1.185173e+01
-1.184686e+01
-1.184197e+01
-1.183707e+01
-1.183216e+01
-1.182723e+01
-1.182230e+01
-1.181736e+01
-1.181241e+01
-1.180745e+01
-1.180248e+01
-1.179750e+01
-1.179252e+01
-1.178753e+01
-1.178253e+01
-1.177752e+01
-1.177251e+01
-1.176749e+01
-1.176247e+01
-1.175745e+01
-1.175242e+01
-1.174738e+01
-1.174234e+01
-1.173729e+01
-1.173225e+01
-1.172719e+01
-1.172214e+01
-1.171708e+01
-1.171202e+01
-1.170696e+01
-1.170189e+01
-1.169682e+01
-1.169175e+01
-1.168668e+01
-1.168160e+01
-1.167653e+01
-1.167145e+01
-1.166637e+01
-1.166129e+01
-1.165621e+01
-1.165113e+01
-1.164604e+01
-1.164096e+01
-1.163588e+01
-1.163079e+01
-1.162570e+01
-1.162062e+01
-1.161553e+01
-1.161044e+01
-1.160536e+01
-1.160027e+01
-1.159518e+01
-1.159009e+01
-1.158501e+01
-1.157992e+01
-1.157483e+01
-1.156974e+01
-1.156465e+01
-1.155957e+01
-1.155448e+01
-1.154939e+01
-1.154431e+01
-1.153922e+01
-1.153414e+01
-1.152905e+01
-1.152397e+01
-1.151889e+01
-1.151380e+01
-1.150872e+01
-1.150364e+01
-1.149856e+01
-1.149347e+01
-1.148839e+01
-1.148331e+01
-1.147824e+01
-1.147316e+01
-1.146808e+01
-1.146300e+01
-1.145793e+01
-1.145285e+01
-1.144778e+01
-1.144270e+01
-1.143763e+01
-1.143256e+01
-1.142748e+01
-1.142241e+01
-1.141734e+01
-1.141227e+01
-1.140720e+01
-1.140213e+01
-1.139707e+01
-1.139200e+01
-1.138693e+01
-1.138187e+01
-1.137680e+01
-1.137174e+01
-1.136668e+01
-1.136161e+01
-1.135655e+01
-1.135149e+01
-1.134643e+01
-1.134137e+01
-1.133631e+01
-1.133125e+01
-1.132620e+01
-1.132114e+01
-1.131608e+01
-1.131103e+01
-1.130597e+01
-1.130092e+01
-1.129587e+01
-1.129081e+01
-1.128576e+01
-1.128071e+01
-1.127566e+01
-1.127061e+01
-1.126556e+01
-1.126051e+01
-1.125546e+01
-1.125042e+01
-1.124537e+01
-1.124032e+01
-1.123528e+01
-1.123023e+01
-1.122519e+01
-1.122014e+01
-1.121510e+01
-1.121006e+01
-1.120501e+01
-1.119997e+01
-1.119493e+01
-1.118989e+01
-1.118485e+01
-1.117981e+01
-1.117477e+01
-1.116973e+01
-1.116469e+01
-1.115965e+01
-1.115462e+01
-1.114958e+01
-1.114454e+01
-1.113951e+01
-1.113447e+01
-1.112944e+01
-1.112440e+01
-1.111937e+01
-1.111433e+01
-1.110930e+01
-1.110427e+01
-1.109923e+01
-1.109420e+01
-1.108917e+01
-1.108414e+01
-1.107911e+01
-1.107407e+01
-1.106905e+01
-1.106401e+01
-1.105898e+01
-1.105396e+01
-1.104892e+01
-1.104390e+01
-1.103887e+01
-1.103384e+01
-1.102881e+01
-1.102378e+01
-1.101876e+01
-1.101373e+01
-1.100870e+01
-1.100368e+01
-1.099865e+01
-1.099362e+01
-1.098860e+01
-1.098357e+01
-1.097855e+01
-1.097353e+01
-1.096850e+01
-1.096347e+01
-1.095845e+01
-1.095343e+01
-1.094840e+01
-1.094338e+01
-1.093836e+01
-1.093334e+01
-1.092831e+01
-1.092329e+01
-1.091827e+01
-1.091325e+01
-1.090823e+01
-1.090321e+01
-1.089818e+01
-1.089317e+01
-1.088814e+01
-1.088312e+01
-1.087811e+01
-1.087308e+01
-1.086806e+01
-1.086305e+01
-1.085803e+01
-1.085301e+01
-1.084799e+01
-1.084297e+01
-1.083796e+01
-1.083294e+01
-1.082792e+01
-1.082290e+01
-1.081788e+01
-1.081287e+01
-1.080785e+01
-1.080284e+01
-1.079782e+01
-1.079280e+01
-1.078779e+01
-1.078278e+01
-1.077776e+01
-1.077275e+01
-1.076773e+01
-1.076272e+01
-1.075771e+01
-1.075269e+01
-1.074768e+01
-1.074267e+01
-1.073766e+01
-1.073265e+01
-1.072764e+01
-1.072262e+01
-1.071761e+01
-1.071260e+01
-1.070760e+01
-1.070259e+01
-1.069758e+01
-1.069257e+01
-1.068757e+01
-1.068256e+01
-1.067755e+01
-1.067255e+01
-1.066754e+01
-1.066254e+01
-1.065753e+01
-1.065253e+01
-1.064753e+01
-1.064252e+01
-1.063752e+01
-1.063252e+01
-1.062752e+01
-1.062252e+01
-1.061752e+01
-1.061253e+01
-1.060753e+01
-1.060253e+01
-1.059754e+01
-1.059255e+01
-1.058755e+01
-1.058256e+01
-1.057757e+01
-1.057258e+01
-1.056759e+01
-1.056260e+01
-1.055761e+01
-1.055263e+01
-1.054764e+01
-1.054265e+01
-1.053767e+01
-1.053269e+01
-1.052771e+01
-1.052273e+01
-1.051775e+01
-1.051278e+01
-1.050780e+01
-1.050283e+01
-1.049786e+01
-1.049289e+01
-1.048792e+01
-1.048295e+01
-1.047799e+01
-1.047302e+01
-1.046806e+01
-1.046310e+01
-1.045814e+01
-1.045319e+01
-1.044823e+01
-1.044328e+01
-1.043833e+01
-1.043339e+01
-1.042844e+01
-1.042350e+01
-1.041856e+01
-1.041362e+01
-1.040869e+01
-1.040375e+01
-1.039882e+01
-1.039390e+01
-1.038897e+01
-1.038405e+01
-1.037914e+01
-1.037422e+01
-1.036931e+01
-1.036440e+01
-1.035950e+01
-1.035460e+01
-1.034970e+01
-1.034481e+01
-1.033992e+01
-1.033503e+01
-1.033015e+01
-1.032527e+01
-1.032040e+01
-1.031553e+01
-1.031067e+01
-1.030581e+01
-1.030096e+01
-1.029610e+01
-1.029126e+01
-1.028642e+01
-1.028159e+01
-1.027676e+01
-1.027194e+01
-1.026712e+01
-1.026231e+01
-1.025751e+01
-1.025271e+01
-1.024792e+01
-1.024313e+01
-1.023836e+01
-1.023359e+01
-1.022882e+01
-1.022407e+01
-1.021932e+01
-1.021458e+01
-1.020985e+01
-1.020512e+01
-1.020041e+01
-1.019570e+01
-1.019101e+01
-1.018632e+01
-1.018164e+01
-1.017697e+01
-1.017231e+01
-1.016766e+01
-1.016303e+01
-1.015840e+01
-1.015378e+01
-1.014918e+01
-1.014459e+01
-1.014001e+01
-1.013544e+01
-1.013088e+01
-1.012634e+01
-1.012181e+01
-1.011730e+01
-1.011279e+01
-1.010831e+01
-1.010384e+01
-1.009938e+01
-1.009494e+01
-1.009051e+01
-1.008610e+01
-1.008171e+01
-1.007733e+01
-1.007298e+01
-1.006864e+01
-1.006432e+01
-1.006001e+01
-1.005573e+01
-1.005147e+01
-1.004723e+01
-1.004301e+01
-1.003881e+01
-1.003463e+01
-1.003047e+01
-1.002634e+01
-1.002223e+01
-1.001815e+01
-1.001409e+01
-1.001006e+01
-1.000605e+01
-1.000207e+01
-9.998112e+00
-9.994188e+00
-9.990290e+00
-9.986423e+00
-9.982584e+00
-9.978778e+00
-9.975004e+00
-9.971259e+00
-9.967549e+00
-9.963874e+00
-9.960231e+00
-9.956624e+00
-9.953054e+00
-9.949521e+00
-9.946027e+00
-9.942569e+00
-9.939152e+00
-9.935777e+00
-9.932441e+00
-9.929148e+00
-9.925900e+00
-9.922694e+00
-9.919536e+00
-9.916421e+00
-9.913356e+00
-9.910340e+00
-9.907370e+00
-9.904452e+00
-9.901588e+00
-9.898774e+00
-9.896015e+00
-9.893310e+00
-9.890663e+00
-9.888074e+00
-9.885540e+00
-9.883069e+00
-9.880660e+00
-9.878312e+00
-9.876027e+00
-9.873810e+00
-9.871659e+00
-9.869578e+00
-9.867563e+00
-9.865622e+00
-9.863757e+00
-9.861962e+00
-9.860246e+00
-9.858610e+00
-9.857053e+00
-9.855579e+00
-9.854191e+00
-9.852891e+00
-9.851681e+00
-9.850563e+00
-9.849545e+00
-9.848623e+00
-9.847802e+00
-9.847091e+00
-9.846502e+00
-9.846025e+00
-9.845659e+00
-9.845410e+00
-9.845284e+00
