# vtk DataFile Version 3.0
Monodomain MVF
ASCII
DATASET POLYDATA
POINTS 501 float
0.000000e+00 0.000000e+00 0.000000e+00
1.000000e-02 0.000000e+00 0.000000e+00
2.000000e-02 0.000000e+00 0.000000e+00
3.000000e-02 0.000000e+00 0.000000e+00
4.000000e-02 0.000000e+00 0.000000e+00
5.000000e-02 0.000000e+00 0.000000e+00
6.000000e-02 0.000000e+00 0.000000e+00
7.000000e-02 0.000000e+00 0.000000e+00
8.000000e-02 0.000000e+00 0.000000e+00
9.000000e-02 0.000000e+00 0.000000e+00
1.000000e-01 0.000000e+00 0.000000e+00
1.100000e-01 0.000000e+00 0.000000e+00
1.200000e-01 0.000000e+00 0.000000e+00
1.300000e-01 0.000000e+00 0.000000e+00
1.400000e-01 0.000000e+00 0.000000e+00
1.500000e-01 0.000000e+00 0.000000e+00
1.600000e-01 0.000000e+00 0.000000e+00
1.700000e-01 0.000000e+00 0.000000e+00
1.800000e-01 0.000000e+00 0.000000e+00
1.900000e-01 0.000000e+00 0.000000e+00
2.000000e-01 0.000000e+00 0.000000e+00
2.100000e-01 0.000000e+00 0.000000e+00
2.200000e-01 0.000000e+00 0.000000e+00
2.300000e-01 0.000000e+00 0.000000e+00
2.400000e-01 0.000000e+00 0.000000e+00
2.500000e-01 0.000000e+00 0.000000e+00
2.600000e-01 0.000000e+00 0.000000e+00
2.700000e-01 0.000000e+00 0.000000e+00
2.800000e-01 0.000000e+00 0.000000e+00
2.900000e-01 0.000000e+00 0.000000e+00
3.000000e-01 0.000000e+00 0.000000e+00
3.100000e-01 0.000000e+00 0.000000e+00
3.200000e-01 0.000000e+00 0.000000e+00
3.300000e-01 0.000000e+00 0.000000e+00
3.400000e-01 0.000000e+00 0.000000e+00
3.500000e-01 0.000000e+00 0.000000e+00
3.600000e-01 0.000000e+00 0.000000e+00
3.700000e-01 0.000000e+00 0.000000e+00
3.800000e-01 0.000000e+00 0.000000e+00
3.900000e-01 0.000000e+00 0.000000e+00
4.000000e-01 0.000000e+00 0.000000e+00
4.100000e-01 0.000000e+00 0.000000e+00
4.200000e-01 0.000000e+00 0.000000e+00
4.300000e-01 0.000000e+00 0.000000e+00
4.400000e-01 0.000000e+00 0.000000e+00
4.500000e-01 0.000000e+00 0.000000e+00
4.600000e-01 0.000000e+00 0.000000e+00
4.700000e-01 0.000000e+00 0.000000e+00
4.800000e-01 0.000000e+00 0.000000e+00
4.900000e-01 0.000000e+00 0.000000e+00
5.000000e-01 0.000000e+00 0.000000e+00
5.100000e-01 0.000000e+00 0.000000e+00
5.200000e-01 0.000000e+00 0.000000e+00
5.300000e-01 0.000000e+00 0.000000e+00
5.400000e-01 0.000000e+00 0.000000e+00
5.500000e-01 0.000000e+00 0.000000e+00
5.600000e-01 0.000000e+00 0.000000e+00
5.700000e-01 0.000000e+00 0.000000e+00
5.800000e-01 0.000000e+00 0.000000e+00
5.900000e-01 0.000000e+00 0.000000e+00
6.000000e-01 0.000000e+00 0.000000e+00
6.100000e-01 0.000000e+00 0.000000e+00
6.200000e-01 0.000000e+00 0.000000e+00
6.300000e-01 0.000000e+00 0.000000e+00
6.400000e-01 0.000000e+00 0.000000e+00
6.500000e-01 0.000000e+00 0.000000e+00
6.600000e-01 0.000000e+00 0.000000e+00
6.700000e-01 0.000000e+00 0.000000e+00
6.800000e-01 0.000000e+00 0.000000e+00
6.900000e-01 0.000000e+00 0.000000e+00
7.000000e-01 0.000000e+00 0.000000e+00
7.100000e-01 0.000000e+00 0.000000e+00
7.200000e-01 0.000000e+00 0.000000e+00
7.300000e-01 0.000000e+00 0.000000e+00
7.400000e-01 0.000000e+00 0.000000e+00
7.500000e-01 0.000000e+00 0.000000e+00
7.600000e-01 0.000000e+00 0.000000e+00
7.700000e-01 0.000000e+00 0.000000e+00
7.800000e-01 0.000000e+00 0.000000e+00
7.900000e-01 0.000000e+00 0.000000e+00
8.000000e-01 0.000000e+00 0.000000e+00
8.100000e-01 0.000000e+00 0.000000e+00
8.200000e-01 0.000000e+00 0.000000e+00
8.300000e-01 0.000000e+00 0.000000e+00
8.400000e-01 0.000000e+00 0.000000e+00
8.500000e-01 0.000000e+00 0.000000e+00
8.600000e-01 0.000000e+00 0.000000e+00
8.700000e-01 0.000000e+00 0.000000e+00
8.800000e-01 0.000000e+00 0.000000e+00
8.900000e-01 0.000000e+00 0.000000e+00
9.000000e-01 0.000000e+00 0.000000e+00
9.100000e-01 0.000000e+00 0.000000e+00
9.200000e-01 0.000000e+00 0.000000e+00
9.300000e-01 0.000000e+00 0.000000e+00
9.400000e-01 0.000000e+00 0.000000e+00
9.500000e-01 0.000000e+00 0.000000e+00
9.600000e-01 0.000000e+00 0.000000e+00
9.700000e-01 0.000000e+00 0.000000e+00
9.800000e-01 0.000000e+00 0.000000e+00
9.900000e-01 0.000000e+00 0.000000e+00
1.000000e+00 0.000000e+00 0.000000e+00
1.010000e+00 0.000000e+00 0.000000e+00
1.020000e+00 0.000000e+00 0.000000e+00
1.030000e+00 0.000000e+00 0.000000e+00
1.040000e+00 0.000000e+00 0.000000e+00
1.050000e+00 0.000000e+00 0.000000e+00
1.060000e+00 0.000000e+00 0.000000e+00
1.070000e+00 0.000000e+00 0.000000e+00
1.080000e+00 0.000000e+00 0.000000e+00
1.090000e+00 0.000000e+00 0.000000e+00
1.100000e+00 0.000000e+00 0.000000e+00
1.110000e+00 0.000000e+00 0.000000e+00
1.120000e+00 0.000000e+00 0.000000e+00
1.130000e+00 0.000000e+00 0.000000e+00
1.140000e+00 0.000000e+00 0.000000e+00
1.150000e+00 0.000000e+00 0.000000e+00
1.160000e+00 0.000000e+00 0.000000e+00
1.170000e+00 0.000000e+00 0.000000e+00
1.180000e+00 0.000000e+00 0.000000e+00
1.190000e+00 0.000000e+00 0.000000e+00
1.200000e+00 0.000000e+00 0.000000e+00
1.210000e+00 0.000000e+00 0.000000e+00
1.220000e+00 0.000000e+00 0.000000e+00
1.230000e+00 0.000000e+00 0.000000e+00
1.240000e+00 0.000000e+00 0.000000e+00
1.250000e+00 0.000000e+00 0.000000e+00
1.260000e+00 0.000000e+00 0.000000e+00
1.270000e+00 0.000000e+00 0.000000e+00
1.280000e+00 0.000000e+00 0.000000e+00
1.290000e+00 0.000000e+00 0.000000e+00
1.300000e+00 0.000000e+00 0.000000e+00
1.310000e+00 0.000000e+00 0.000000e+00
1.320000e+00 0.000000e+00 0.000000e+00
1.330000e+00 0.000000e+00 0.000000e+00
1.340000e+00 0.000000e+00 0.000000e+00
1.350000e+00 0.000000e+00 0.000000e+00
1.360000e+00 0.000000e+00 0.000000e+00
1.370000e+00 0.000000e+00 0.000000e+00
1.380000e+00 0.000000e+00 0.000000e+00
1.390000e+00 0.000000e+00 0.000000e+00
1.400000e+00 0.000000e+00 0.000000e+00
1.410000e+00 0.000000e+00 0.000000e+00
1.420000e+00 0.000000e+00 0.000000e+00
1.430000e+00 0.000000e+00 0.000000e+00
1.440000e+00 0.000000e+00 0.000000e+00
1.450000e+00 0.000000e+00 0.000000e+00
1.460000e+00 0.000000e+00 0.000000e+00
1.470000e+00 0.000000e+00 0.000000e+00
1.480000e+00 0.000000e+00 0.000000e+00
1.490000e+00 0.000000e+00 0.000000e+00
1.500000e+00 0.000000e+00 0.000000e+00
1.510000e+00 0.000000e+00 0.000000e+00
1.520000e+00 0.000000e+00 0.000000e+00
1.530000e+00 0.000000e+00 0.000000e+00
1.540000e+00 0.000000e+00 0.000000e+00
1.550000e+00 0.000000e+00 0.000000e+00
1.560000e+00 0.000000e+00 0.000000e+00
1.570000e+00 0.000000e+00 0.000000e+00
1.580000e+00 0.000000e+00 0.000000e+00
1.590000e+00 0.000000e+00 0.000000e+00
1.600000e+00 0.000000e+00 0.000000e+00
1.610000e+00 0.000000e+00 0.000000e+00
1.620000e+00 0.000000e+00 0.000000e+00
1.630000e+00 0.000000e+00 0.000000e+00
1.640000e+00 0.000000e+00 0.000000e+00
1.650000e+00 0.000000e+00 0.000000e+00
1.660000e+00 0.000000e+00 0.000000e+00
1.670000e+00 0.000000e+00 0.000000e+00
1.680000e+00 0.000000e+00 0.000000e+00
1.690000e+00 0.000000e+00 0.000000e+00
1.700000e+00 0.000000e+00 0.000000e+00
1.710000e+00 0.000000e+00 0.000000e+00
1.720000e+00 0.000000e+00 0.000000e+00
1.730000e+00 0.000000e+00 0.000000e+00
1.740000e+00 0.000000e+00 0.000000e+00
1.750000e+00 0.000000e+00 0.000000e+00
1.760000e+00 0.000000e+00 0.000000e+00
1.770000e+00 0.000000e+00 0.000000e+00
1.780000e+00 0.000000e+00 0.000000e+00
1.790000e+00 0.000000e+00 0.000000e+00
1.800000e+00 0.000000e+00 0.000000e+00
1.810000e+00 0.000000e+00 0.000000e+00
1.820000e+00 0.000000e+00 0.000000e+00
1.830000e+00 0.000000e+00 0.000000e+00
1.840000e+00 0.000000e+00 0.000000e+00
1.850000e+00 0.000000e+00 0.000000e+00
1.860000e+00 0.000000e+00 0.000000e+00
1.870000e+00 0.000000e+00 0.000000e+00
1.880000e+00 0.000000e+00 0.000000e+00
1.890000e+00 0.000000e+00 0.000000e+00
1.900000e+00 0.000000e+00 0.000000e+00
1.910000e+00 0.000000e+00 0.000000e+00
1.920000e+00 0.000000e+00 0.000000e+00
1.930000e+00 0.000000e+00 0.000000e+00
1.940000e+00 0.000000e+00 0.000000e+00
1.950000e+00 0.000000e+00 0.000000e+00
1.960000e+00 0.000000e+00 0.000000e+00
1.970000e+00 0.000000e+00 0.000000e+00
1.980000e+00 0.000000e+00 0.000000e+00
1.990000e+00 0.000000e+00 0.000000e+00
2.000000e+00 0.000000e+00 0.000000e+00
2.010000e+00 0.000000e+00 0.000000e+00
2.020000e+00 0.000000e+00 0.000000e+00
2.030000e+00 0.000000e+00 0.000000e+00
2.040000e+00 0.000000e+00 0.000000e+00
2.050000e+00 0.000000e+00 0.000000e+00
2.060000e+00 0.000000e+00 0.000000e+00
2.070000e+00 0.000000e+00 0.000000e+00
2.080000e+00 0.000000e+00 0.000000e+00
2.090000e+00 0.000000e+00 0.000000e+00
2.100000e+00 0.000000e+00 0.000000e+00
2.110000e+00 0.000000e+00 0.000000e+00
2.120000e+00 0.000000e+00 0.000000e+00
2.130000e+00 0.000000e+00 0.000000e+00
2.140000e+00 0.000000e+00 0.000000e+00
2.150000e+00 0.000000e+00 0.000000e+00
2.160000e+00 0.000000e+00 0.000000e+00
2.170000e+00 0.000000e+00 0.000000e+00
2.180000e+00 0.000000e+00 0.000000e+00
2.190000e+00 0.000000e+00 0.000000e+00
2.200000e+00 0.000000e+00 0.000000e+00
2.210000e+00 0.000000e+00 0.000000e+00
2.220000e+00 0.000000e+00 0.000000e+00
2.230000e+00 0.000000e+00 0.000000e+00
2.240000e+00 0.000000e+00 0.000000e+00
2.250000e+00 0.000000e+00 0.000000e+00
2.260000e+00 0.000000e+00 0.000000e+00
2.270000e+00 0.000000e+00 0.000000e+00
2.280000e+00 0.000000e+00 0.000000e+00
2.290000e+00 0.000000e+00 0.000000e+00
2.300000e+00 0.000000e+00 0.000000e+00
2.310000e+00 0.000000e+00 0.000000e+00
2.320000e+00 0.000000e+00 0.000000e+00
2.330000e+00 0.000000e+00 0.000000e+00
2.340000e+00 0.000000e+00 0.000000e+00
2.350000e+00 0.000000e+00 0.000000e+00
2.360000e+00 0.000000e+00 0.000000e+00
2.370000e+00 0.000000e+00 0.000000e+00
2.380000e+00 0.000000e+00 0.000000e+00
2.390000e+00 0.000000e+00 0.000000e+00
2.400000e+00 0.000000e+00 0.000000e+00
2.410000e+00 0.000000e+00 0.000000e+00
2.420000e+00 0.000000e+00 0.000000e+00
2.430000e+00 0.000000e+00 0.000000e+00
2.440000e+00 0.000000e+00 0.000000e+00
2.450000e+00 0.000000e+00 0.000000e+00
2.460000e+00 0.000000e+00 0.000000e+00
2.470000e+00 0.000000e+00 0.000000e+00
2.480000e+00 0.000000e+00 0.000000e+00
2.490000e+00 0.000000e+00 0.000000e+00
2.500000e+00 0.000000e+00 0.000000e+00
2.510000e+00 0.000000e+00 0.000000e+00
2.520000e+00 0.000000e+00 0.000000e+00
2.530000e+00 0.000000e+00 0.000000e+00
[...]
POINT_DATA 501
SCALARS vm float 1
LOOKUP_TABLE default
-8.788233e+00
-8.787984e+00
-8.787488e+00
-8.786750e+00
-8.785781e+00
-8.784571e+00
-8.783185e+00
-8.781627e+00
-8.779901e+00
-8.778011e+00
-8.775970e+00
-8.773781e+00
-8.771451e+00
-8.768988e+00
-8.766396e+00
-8.763680e+00
-8.760847e+00
-8.757900e+00
-8.754845e+00
-8.751689e+00
-8.748432e+00
-8.745080e+00
-8.741641e+00
-8.738113e+00
-8.734502e+00
-8.730816e+00
-8.727052e+00
-8.723215e+00
-8.719313e+00
-8.715343e+00
-8.711310e+00
-8.707220e+00
-8.703071e+00
-8.698870e+00
-8.694614e+00
-8.690308e+00
-8.685959e+00
-8.681561e+00
-8.677120e+00
-8.672641e+00
-8.668121e+00
-8.663563e+00
-8.658972e+00
-8.654345e+00
-8.649689e+00
-8.644999e+00
-8.640280e+00
-8.635536e+00
-8.630763e+00
-8.625964e+00
-8.621144e+00
-8.616299e+00
-8.611435e+00
-8.606548e+00
-8.601641e+00
-8.596719e+00
-8.591776e+00
-8.586816e+00
-8.581844e+00
-8.576854e+00
-8.571849e+00
-8.566834e+00
-8.561803e+00
-8.556763e+00
-8.551709e+00
-8.546644e+00
-8.541572e+00
-8.536487e+00
-8.531393e+00
-8.526293e+00
-8.521183e+00
-8.516067e+00
-8.510942e+00
-8.505810e+00
-8.500675e+00
-8.495531e+00
-8.490381e+00
-8.485229e+00
-8.480069e+00
-8.474906e+00
-8.469739e+00
-8.464567e+00
-8.459394e+00
-8.454215e+00
-8.449032e+00
-8.443849e+00
-8.438661e+00
-8.433471e+00
-8.428281e+00
-8.423086e+00
-8.417892e+00
-8.412694e+00
-8.407493e+00
-8.402295e+00
-8.397093e+00
-8.391889e+00
-8.386687e+00
-8.381481e+00
-8.376278e+00
-8.371072e+00
-8.365864e+00
-8.360660e+00
-8.355452e+00
-8.350243e+00
-8.345038e+00
-8.339830e+00
-8.334622e+00
-8.329416e+00
-8.324208e+00
-8.319004e+00
-8.313797e+00
-8.308589e+00
-8.303386e+00
-8.298179e+00
-8.292974e+00
-8.287771e+00
-8.282567e+00
-8.277366e+00
-8.272163e+00
-8.266959e+00
-8.261761e+00
-8.256560e+00
-8.251359e+00
-8.246162e+00
-8.240963e+00
-8.235767e+00
-8.230570e+00
-8.225373e+00
-8.220181e+00
-8.214986e+00
-8.209792e+00
-8.204602e+00
-8.199409e+00
-8.194218e+00
-8.189030e+00
-8.183840e+00
-8.178655e+00
-8.173467e+00
-8.168280e+00
-8.163097e+00
-8.157912e+00
-8.152728e+00
-8.147547e+00
-8.142364e+00
-8.137185e+00
-8.132005e+00
-8.126824e+00
-8.121649e+00
-8.116470e+00
-8.111293e+00
-8.106119e+00
-8.100943e+00
-8.095770e+00
-8.090597e+00
-8.085423e+00
-8.080254e+00
-8.075082e+00
-8.069910e+00
-8.064743e+00
-8.059574e+00
-8.054405e+00
-8.049240e+00
-8.044072e+00
-8.038909e+00
-8.033743e+00
-8.028577e+00
-8.023416e+00
-8.018251e+00
-8.013088e+00
-8.007928e+00
-8.002766e+00
-7.997607e+00
-7.992447e+00
-7.987286e+00
-7.982130e+00
-7.976971e+00
-7.971812e+00
-7.966657e+00
-7.961499e+00
-7.956344e+00
-7.951189e+00
-7.946032e+00
-7.940880e+00
-7.935725e+00
-7.930570e+00
-7.925419e+00
-7.920265e+00
-7.915112e+00
-7.909962e+00
-7.904809e+00
-7.899660e+00
-7.894509e+00
-7.889357e+00
-7.884209e+00
-7.879059e+00
-7.873909e+00
-7.868762e+00
-7.863612e+00
-7.858466e+00
-7.853317e+00
-7.848168e+00
-7.843023e+00
-7.837875e+00
-7.832727e+00
-7.827582e+00
-7.822435e+00
-7.817290e+00
-7.812144e+00
-7.806997e+00
-7.801854e+00
-7.796708e+00
-7.791561e+00
-7.786419e+00
-7.781273e+00
-7.776128e+00
-7.770986e+00
-7.765840e+00
-7.760699e+00
-7.755554e+00
-7.750409e+00
-7.745268e+00
-7.740124e+00
-7.734980e+00
-7.729838e+00
-7.724694e+00
-7.719553e+00
-7.714410e+00
-7.709266e+00
-7.704126e+00
-7.698982e+00
-7.693838e+00
-7.688698e+00
-7.683555e+00
-7.678414e+00
-7.673272e+00
-7.668128e+00
-7.662989e+00
-7.657846e+00
-7.652702e+00
-7.647563e+00
-7.642420e+00
-7.637277e+00
-7.632137e+00
-7.626994e+00
-7.621855e+00
-7.616713e+00
-7.611569e+00
-7.606430e+00
-7.601288e+00
-7.596145e+00
-7.591005e+00
-7.585863e+00
-7.580723e+00
-7.575581e+00
-7.570438e+00
-7.565299e+00
-7.560157e+00
-7.555014e+00
-7.549874e+00
-7.544732e+00
-7.539591e+00
-7.534450e+00
-7.529307e+00
-7.524168e+00
-7.519026e+00
-7.513883e+00
-7.508744e+00
-7.503602e+00
-7.498460e+00
-7.493321e+00
-7.488178e+00
-7.483039e+00
-7.477897e+00
-7.472755e+00
-7.467616e+00
-7.462474e+00
-7.457332e+00
-7.452193e+00
-7.447051e+00
-7.441913e+00
-7.436772e+00
-7.431629e+00
-7.426492e+00
-7.421350e+00
-7.416208e+00
-7.411071e+00
-7.405929e+00
-7.400790e+00
-7.395651e+00
-7.390510e+00
-7.385373e+00
-7.380233e+00
-7.375092e+00
-7.369956e+00
-7.364816e+00
-7.359677e+00
-7.354541e+00
-7.349401e+00
-7.344266e+00
-7.339128e+00
-7.333989e+00
-7.328855e+00
-7.323717e+00
-7.318580e+00
-7.313446e+00
-7.308309e+00
-7.303176e+00
-7.298041e+00
-7.292905e+00
-7.287773e+00
-7.282639e+00
-7.277505e+00
-7.272375e+00
-7.267242e+00
-7.262110e+00
-7.256981e+00
-7.251849e+00
-7.246722e+00
-7.241593e+00
-7.236463e+00
-7.231338e+00
-7.226210e+00
-7.221083e+00
-7.215960e+00
-7.210834e+00
-7.205713e+00
-7.200590e+00
-7.195466e+00
-7.190348e+00
-7.185228e+00
-7.180108e+00
-7.174993e+00
-7.169875e+00
-7.164761e+00
-7.159647e+00
-7.154533e+00
-7.149424e+00
-7.144313e+00
-7.139203e+00
-7.134098e+00
-7.128991e+00
-7.123887e+00
-7.118786e+00
-7.113684e+00
-7.108588e+00
-7.103490e+00
-7.098392e+00
-7.093302e+00
-7.088209e+00
-7.083119e+00
-7.078034e+00
-7.072948e+00
-7.067867e+00
-7.062787e+00
-7.057707e+00
-7.052634e+00
-7.047561e+00
-7.042489e+00
-7.037425e+00
-7.032359e+00
-7.027299e+00
-7.022241e+00
-7.017184e+00
-7.012135e+00
-7.007086e+00
-7.002039e+00
-6.997000e+00
-6.991961e+00
-6.986927e+00
-6.981899e+00
-6.976872e+00
-6.971853e+00
-6.966835e+00
-6.961820e+00
-6.956815e+00
-6.951810e+00
-6.946810e+00
-6.941819e+00
-6.936829e+00
-6.931848e+00
-6.926870e+00
-6.921896e+00
-6.916933e+00
-6.911972e+00
-6.907016e+00
-6.902071e+00
-6.897128e+00
-6.892195e+00
-6.887268e+00
-6.882346e+00
-6.877435e+00
-6.872529e+00
-6.867630e+00
-6.862743e+00
-6.857860e+00
-6.852986e+00
-6.848124e+00
-6.843267e+00
-6.838424e+00
-6.833587e+00
-6.828758e+00
-6.823944e+00
-6.819136e+00
-6.814339e+00
-6.809556e+00
-6.804781e+00
-6.800021e+00
-6.795270e+00
-6.790530e+00
-6.785807e+00
-6.781093e+00
-6.776392e+00
-6.771708e+00
-6.767034e+00
-6.762378e+00
-6.757735e+00
-6.753105e+00
-6.748495e+00
-6.743898e+00
-6.739316e+00
-6.734755e+00
-6.730208e+00
-6.725680e+00
-6.721172e+00
-6.716679e+00
-6.712210e+00
-6.707757e+00
-6.703323e+00
-6.698915e+00
-6.694524e+00
-6.690155e+00
-6.685812e+00
-6.681488e+00
-6.677192e+00
-6.672918e+00
-6.668666e+00
-6.664445e+00
-6.660248e+00
-6.656076e+00
-6.651935e+00
-6.647819e+00
-6.643736e+00
-6.639680e+00
-6.635653e+00
-6.631662e+00
-6.627700e+00
-6.623770e+00
-6.619878e+00
-6.616016e+00
-6.612191e+00
-6.608405e+00
-6.604652e+00
-6.600942e+00
-6.597267e+00
-6.593631e+00
-6.590042e+00
-6.586490e+00
-6.582981e+00
-6.579520e+00
-6.576100e+00
-6.572730e+00
-6.569405e+00
-6.566126e+00
-6.562902e+00
-6.559726e+00
-6.556600e+00
-6.553532e+00
-6.550515e+00
-6.547555e+00
-6.544652e+00
-6.541805e+00
-6.539023e+00
-6.536298e+00
-6.533634e+00
-6.531040e+00
-6.528507e+00
-6.526041e+00
-6.523648e+00
-6.521320e+00
-6.519070e+00
-6.516890e+00
-6.514784e+00
-6.512761e+00
-6.510814e+00
-6.508949e+00
-6.507172e+00
-6.505477e+00
-6.503873e+00
-6.502362e+00
-6.500943e+00
-6.499624e+00
-6.498407e+00
-6.497291e+00
-6.496282e+00
-6.495390e+00
-6.494620e+00
-6.493969e+00
-6.493435e+00
-6.493031e+00
-6.492758e+00
-6.492620e+00
