# vtk DataFile Version 3.0
Monodomain MVF
ASCII
DATASET POLYDATA
POINTS 501 float
0.000000e+00 0.000000e+00 0.000000e+00
1.000000e-02 0.000000e+00 0.000000e+00
2.000000e-02 0.000000e+00 0.000000e+00
3.000000e-02 0.000000e+00 0.000000e+00
4.000000e-02 0.000000e+00 0.000000e+00
5.000000e-02 0.000000e+00 0.000000e+00
6.000000e-02 0.000000e+00 0.000000e+00
7.000000e-02 0.000000e+00 0.000000e+00
8.000000e-02 0.000000e+00 0.000000e+00
9.000000e-02 0.000000e+00 0.000000e+00
1.000000e-01 0.000000e+00 0.000000e+00
1.100000e-01 0.000000e+00 0.000000e+00
1.200000e-01 0.000000e+00 0.000000e+00
1.300000e-01 0.000000e+00 0.000000e+00
1.400000e-01 0.000000e+00 0.000000e+00
1.500000e-01 0.000000e+00 0.000000e+00
1.600000e-01 0.000000e+00 0.000000e+00
1.700000e-01 0.000000e+00 0.000000e+00
1.800000e-01 0.000000e+00 0.000000e+00
1.900000e-01 0.000000e+00 0.000000e+00
2.000000e-01 0.000000e+00 0.000000e+00
2.100000e-01 0.000000e+00 0.000000e+00
2.200000e-01 0.000000e+00 0.000000e+00
2.300000e-01 0.000000e+00 0.000000e+00
2.400000e-01 0.000000e+00 0.000000e+00
2.500000e-01 0.000000e+00 0.000000e+00
2.600000e-01 0.000000e+00 0.000000e+00
2.700000e-01 0.000000e+00 0.000000e+00
2.800000e-01 0.000000e+00 0.000000e+00
2.900000e-01 0.000000e+00 0.000000e+00
3.000000e-01 0.000000e+00 0.000000e+00
3.100000e-01 0.000000e+00 0.000000e+00
3.200000e-01 0.000000e+00 0.000000e+00
3.300000e-01 0.000000e+00 0.000000e+00
3.400000e-01 0.000000e+00 0.000000e+00
3.500000e-01 0.000000e+00 0.000000e+00
3.600000e-01 0.000000e+00 0.000000e+00
3.700000e-01 0.000000e+00 0.000000e+00
3.800000e-01 0.000000e+00 0.000000e+00
3.900000e-01 0.000000e+00 0.000000e+00
4.000000e-01 0.000000e+00 0.000000e+00
4.100000e-01 0.000000e+00 0.000000e+00
4.200000e-01 0.000000e+00 0.000000e+00
4.300000e-01 0.000000e+00 0.000000e+00
4.400000e-01 0.000000e+00 0.000000e+00
4.500000e-01 0.000000e+00 0.000000e+00
4.600000e-01 0.000000e+00 0.000000e+00
4.700000e-01 0.000000e+00 0.000000e+00
4.800000e-01 0.000000e+00 0.000000e+00
4.900000e-01 0.000000e+00 0.000000e+00
5.000000e-01 0.000000e+00 0.000000e+00
5.100000e-01 0.000000e+00 0.000000e+00
5.200000e-01 0.000000e+00 0.000000e+00
5.300000e-01 0.000000e+00 0.000000e+00
5.400000e-01 0.000000e+00 0.000000e+00
5.500000e-01 0.000000e+00 0.000000e+00
5.600000e-01 0.000000e+00 0.000000e+00
5.700000e-01 0.000000e+00 0.000000e+00
5.800000e-01 0.000000e+00 0.000000e+00
5.900000e-01 0.000000e+00 0.000000e+00
6.000000e-01 0.000000e+00 0.000000e+00
6.100000e-01 0.000000e+00 0.000000e+00
6.200000e-01 0.000000e+00 0.000000e+00
6.300000e-01 0.000000e+00 0.000000e+00
6.400000e-01 0.000000e+00 0.000000e+00
6.500000e-01 0.000000e+00 0.000000e+00
6.600000e-01 0.000000e+00 0.000000e+00
6.700000e-01 0.000000e+00 0.000000e+00
6.800000e-01 0.000000e+00 0.000000e+00
6.900000e-01 0.000000e+00 0.000000e+00
7.000000e-01 0.000000e+00 0.000000e+00
7.100000e-01 0.000000e+00 0.000000e+00
7.200000e-01 0.000000e+00 0.000000e+00
7.300000e-01 0.000000e+00 0.000000e+00
7.400000e-01 0.000000e+00 0.000000e+00
7.500000e-01 0.000000e+00 0.000000e+00
7.600000e-01 0.000000e+00 0.000000e+00
7.700000e-01 0.000000e+00 0.000000e+00
7.800000e-01 0.000000e+00 0.000000e+00
7.900000e-01 0.000000e+00 0.000000e+00
8.000000e-01 0.000000e+00 0.000000e+00
8.100000e-01 0.000000e+00 0.000000e+00
8.200000e-01 0.000000e+00 0.000000e+00
8.300000e-01 0.000000e+00 0.000000e+00
8.400000e-01 0.000000e+00 0.000000e+00
8.500000e-01 0.000000e+00 0.000000e+00
8.600000e-01 0.000000e+00 0.000000e+00
8.700000e-01 0.000000e+00 0.000000e+00
8.800000e-01 0.000000e+00 0.000000e+00
8.900000e-01 0.000000e+00 0.000000e+00
9.000000e-01 0.000000e+00 0.000000e+00
9.100000e-01 0.000000e+00 0.000000e+00
9.200000e-01 0.000000e+00 0.000000e+00
9.300000e-01 0.000000e+00 0.000000e+00
9.400000e-01 0.000000e+00 0.000000e+00
9.500000e-01 0.000000e+00 0.000000e+00
9.600000e-01 0.000000e+00 0.000000e+00
9.700000e-01 0.000000e+00 0.000000e+00
9.800000e-01 0.000000e+00 0.000000e+00
9.900000e-01 0.000000e+00 0.000000e+00
1.000000e+00 0.000000e+00 0.000000e+00
1.010000e+00 0.000000e+00 0.000000e+00
1.020000e+00 0.000000e+00 0.000000e+00
1.030000e+00 0.000000e+00 0.000000e+00
1.040000e+00 0.000000e+00 0.000000e+00
1.050000e+00 0.000000e+00 0.000000e+00
1.060000e+00 0.000000e+00 0.000000e+00
1.070000e+00 0.000000e+00 0.000000e+00
1.080000e+00 0.000000e+00 0.000000e+00
1.090000e+00 0.000000e+00 0.000000e+00
1.100000e+00 0.000000e+00 0.000000e+00
1.110000e+00 0.000000e+00 0.000000e+00
1.120000e+00 0.000000e+00 0.000000e+00
1.130000e+00 0.000000e+00 0.000000e+00
1.140000e+00 0.000000e+00 0.000000e+00
1.150000e+00 0.000000e+00 0.000000e+00
1.160000e+00 0.000000e+00 0.000000e+00
1.170000e+00 0.000000e+00 0.000000e+00
1.180000e+00 0.000000e+00 0.000000e+00
1.190000e+00 0.000000e+00 0.000000e+00
1.200000e+00 0.000000e+00 0.000000e+00
1.210000e+00 0.000000e+00 0.000000e+00
1.220000e+00 0.000000e+00 0.000000e+00
1.230000e+00 0.000000e+00 0.000000e+00
1.240000e+00 0.000000e+00 0.000000e+00
1.250000e+00 0.000000e+00 0.000000e+00
1.260000e+00 0.000000e+00 0.000000e+00
1.270000e+00 0.000000e+00 0.000000e+00
1.280000e+00 0.000000e+00 0.000000e+00
1.290000e+00 0.000000e+00 0.000000e+00
1.300000e+00 0.000000e+00 0.000000e+00
1.310000e+00 0.000000e+00 0.000000e+00
1.320000e+00 0.000000e+00 0.000000e+00
1.330000e+00 0.000000e+00 0.000000e+00
1.340000e+00 0.000000e+00 0.000000e+00
1.350000e+00 0.000000e+00 0.000000e+00
1.360000e+00 0.000000e+00 0.000000e+00
1.370000e+00 0.000000e+00 0.000000e+00
1.380000e+00 0.000000e+00 0.000000e+00
1.390000e+00 0.000000e+00 0.000000e+00
1.400000e+00 0.000000e+00 0.000000e+00
1.410000e+00 0.000000e+00 0.000000e+00
1.420000e+00 0.000000e+00 0.000000e+00
1.430000e+00 0.000000e+00 0.000000e+00
1.440000e+00 0.000000e+00 0.000000e+00
1.450000e+00 0.000000e+00 0.000000e+00
1.460000e+00 0.000000e+00 0.000000e+00
1.470000e+00 0.000000e+00 0.000000e+00
1.480000e+00 0.000000e+00 0.000000e+00
1.490000e+00 0.000000e+00 0.000000e+00
1.500000e+00 0.000000e+00 0.000000e+00
1.510000e+00 0.000000e+00 0.000000e+00
1.520000e+00 0.000000e+00 0.000000e+00
1.530000e+00 0.000000e+00 0.000000e+00
1.540000e+00 0.000000e+00 0.000000e+00
1.550000e+00 0.000000e+00 0.000000e+00
1.560000e+00 0.000000e+00 0.000000e+00
1.570000e+00 0.000000e+00 0.000000e+00
1.580000e+00 0.000000e+00 0.000000e+00
1.590000e+00 0.000000e+00 0.000000e+00
1.600000e+00 0.000000e+00 0.000000e+00
1.610000e+00 0.000000e+00 0.000000e+00
1.620000e+00 0.000000e+00 0.000000e+00
1.630000e+00 0.000000e+00 0.000000e+00
1.640000e+00 0.000000e+00 0.000000e+00
1.650000e+00 0.000000e+00 0.000000e+00
1.660000e+00 0.000000e+00 0.000000e+00
1.670000e+00 0.000000e+00 0.000000e+00
1.680000e+00 0.000000e+00 0.000000e+00
1.690000e+00 0.000000e+00 0.000000e+00
1.700000e+00 0.000000e+00 0.000000e+00
1.710000e+00 0.000000e+00 0.000000e+00
1.720000e+00 0.000000e+00 0.000000e+00
1.730000e+00 0.000000e+00 0.000000e+00
1.740000e+00 0.000000e+00 0.000000e+00
1.750000e+00 0.000000e+00 0.000000e+00
1.760000e+00 0.000000e+00 0.000000e+00
1.770000e+00 0.000000e+00 0.000000e+00
1.780000e+00 0.000000e+00 0.000000e+00
1.790000e+00 0.000000e+00 0.000000e+00
1.800000e+00 0.000000e+00 0.000000e+00
1.810000e+00 0.000000e+00 0.000000e+00
1.820000e+00 0.000000e+00 0.000000e+00
1.830000e+00 0.000000e+00 0.000000e+00
1.840000e+00 0.000000e+00 0.000000e+00
1.850000e+00 0.000000e+00 0.000000e+00
1.860000e+00 0.000000e+00 0.000000e+00
1.870000e+00 0.000000e+00 0.000000e+00
1.880000e+00 0.000000e+00 0.000000e+00
1.890000e+00 0.000000e+00 0.000000e+00
1.900000e+00 0.000000e+00 0.000000e+00
1.910000e+00 0.000000e+00 0.000000e+00
1.920000e+00 0.000000e+00 0.000000e+00
1.930000e+00 0.000000e+00 0.000000e+00
1.940000e+00 0.000000e+00 0.000000e+00
1.950000e+00 0.000000e+00 0.000000e+00
1.960000e+00 0.000000e+00 0.000000e+00
1.970000e+00 0.000000e+00 0.000000e+00
1.980000e+00 0.000000e+00 0.000000e+00
1.990000e+00 0.000000e+00 0.000000e+00
2.000000e+00 0.000000e+00 0.000000e+00
2.010000e+00 0.000000e+00 0.000000e+00
2.020000e+00 0.000000e+00 0.000000e+00
2.030000e+00 0.000000e+00 0.000000e+00
2.040000e+00 0.000000e+00 0.000000e+00
2.050000e+00 0.000000e+00 0.000000e+00
2.060000e+00 0.000000e+00 0.000000e+00
2.070000e+00 0.000000e+00 0.000000e+00
2.080000e+00 0.000000e+00 0.000000e+00
2.090000e+00 0.000000e+00 0.000000e+00
2.100000e+00 0.000000e+00 0.000000e+00
2.110000e+00 0.000000e+00 0.000000e+00
2.120000e+00 0.000000e+00 0.000000e+00
2.130000e+00 0.000000e+00 0.000000e+00
2.140000e+00 0.000000e+00 0.000000e+00
2.150000e+00 0.000000e+00 0.000000e+00
2.160000e+00 0.000000e+00 0.000000e+00
2.170000e+00 0.000000e+00 0.000000e+00
2.180000e+00 0.000000e+00 0.000000e+00
2.190000e+00 0.000000e+00 0.000000e+00
2.200000e+00 0.000000e+00 0.000000e+00
2.210000e+00 0.000000e+00 0.000000e+00
2.220000e+00 0.000000e+00 0.000000e+00
2.230000e+00 0.000000e+00 0.000000e+00
2.240000e+00 0.000000e+00 0.000000e+00
2.250000e+00 0.000000e+00 0.000000e+00
2.260000e+00 0.000000e+00 0.000000e+00
2.270000e+00 0.000000e+00 0.000000e+00
2.280000e+00 0.000000e+00 0.000000e+00
2.290000e+00 0.000000e+00 0.000000e+00
2.300000e+00 0.000000e+00 0.000000e+00
2.310000e+00 0.000000e+00 0.000000e+00
2.320000e+00 0.000000e+00 0.000000e+00
2.330000e+00 0.000000e+00 0.000000e+00
2.340000e+00 0.000000e+00 0.000000e+00
2.350000e+00 0.000000e+00 0.000000e+00
2.360000e+00 0.000000e+00 0.000000e+00
2.370000e+00 0.000000e+00 0.000000e+00
2.380000e+00 0.000000e+00 0.000000e+00
2.390000e+00 0.000000e+00 0.000000e+00
2.400000e+00 0.000000e+00 0.000000e+00
2.410000e+00 0.000000e+00 0.000000e+00
2.420000e+00 0.000000e+00 0.000000e+00
2.430000e+00 0.000000e+00 0.000000e+00
2.440000e+00 0.000000e+00 0.000000e+00
2.450000e+00 0.000000e+00 0.000000e+00
2.460000e+00 0.000000e+00 0.000000e+00
2.470000e+00 0.000000e+00 0.000000e+00
2.480000e+00 0.000000e+00 0.000000e+00
2.490000e+00 0.000000e+00 0.000000e+00
2.500000e+00 0.000000e+00 0.000000e+00
2.510000e+00 0.000000e+00 0.000000e+00
2.520000e+00 0.000000e+00 0.000000e+00
2.530000e+00 0.000000e+00 0.000000e+00
[...]
POINT_DATA 501
SCALARS vm float 1
LOOKUP_TABLE default
-5.177719e+00
-5.177450e+00
-5.176913e+00
-5.176114e+00
-5.175065e+00
-5.173753e+00
-5.172254e+00
-5.170572e+00
-5.168709e+00
-5.166670e+00
-5.164471e+00
-5.162115e+00
-5.159608e+00
-5.156960e+00
-5.154175e+00
-5.151259e+00
-5.148219e+00
-5.145059e+00
-5.141784e+00
-5.138403e+00
-5.134915e+00
-5.131327e+00
-5.127648e+00
-5.123875e+00
-5.120015e+00
-5.116076e+00
-5.112056e+00
-5.107959e+00
-5.103794e+00
-5.099559e+00
-5.095257e+00
-5.090897e+00
-5.086474e+00
-5.081998e+00
-5.077466e+00
-5.072881e+00
-5.068252e+00
-5.063573e+00
-5.058848e+00
-5.054086e+00
-5.049280e+00
-5.044437e+00
-5.039559e+00
-5.034644e+00
-5.029700e+00
-5.024722e+00
-5.019712e+00
-5.014680e+00
-5.009616e+00
-5.004527e+00
-4.999418e+00
-4.994282e+00
-4.989127e+00
-4.983951e+00
-4.978753e+00
-4.973541e+00
-4.968308e+00
-4.963058e+00
-4.957796e+00
-4.952517e+00
-4.947223e+00
-4.941919e+00
-4.936599e+00
-4.931271e+00
-4.925930e+00
-4.920576e+00
-4.915218e+00
-4.909846e+00
-4.904466e+00
-4.899081e+00
-4.893685e+00
-4.888285e+00
-4.882876e+00
-4.877459e+00
-4.872041e+00
-4.866614e+00
-4.861181e+00
-4.855748e+00
-4.850306e+00
-4.844861e+00
-4.839415e+00
-4.833962e+00
-4.828510e+00
-4.823052e+00
-4.817589e+00
-4.812129e+00
-4.806663e+00
-4.801195e+00
-4.795729e+00
-4.790257e+00
-4.784787e+00
-4.779314e+00
-4.773837e+00
-4.768365e+00
-4.762888e+00
-4.757410e+00
-4.751935e+00
-4.746456e+00
-4.740979e+00
-4.735501e+00
-4.730020e+00
-4.724545e+00
-4.719065e+00
-4.713585e+00
-4.708110e+00
-4.702631e+00
-4.697152e+00
-4.691677e+00
-4.686199e+00
-4.680725e+00
-4.675249e+00
-4.669771e+00
-4.664300e+00
-4.658825e+00
-4.653351e+00
-4.647881e+00
-4.642407e+00
-4.636939e+00
-4.631468e+00
-4.625997e+00
-4.620532e+00
-4.615063e+00
-4.609595e+00
-4.604132e+00
-4.598666e+00
-4.593203e+00
-4.587741e+00
-4.582276e+00
-4.576819e+00
-4.571357e+00
-4.565896e+00
-4.560440e+00
-4.554982e+00
-4.549525e+00
-4.544071e+00
-4.538615e+00
-4.533164e+00
-4.527711e+00
-4.522257e+00
-4.516809e+00
-4.511358e+00
-4.505907e+00
-4.500461e+00
-4.495012e+00
-4.489568e+00
-4.484122e+00
-4.478675e+00
-4.473234e+00
-4.467790e+00
-4.462345e+00
-4.456906e+00
-4.451464e+00
-4.446025e+00
-4.440586e+00
-4.435145e+00
-4.429710e+00
-4.424272e+00
-4.418833e+00
-4.413400e+00
-4.407963e+00
-4.402528e+00
-4.397096e+00
-4.391661e+00
-4.386231e+00
-4.380798e+00
-4.375364e+00
-4.369936e+00
-4.364504e+00
-4.359073e+00
-4.353646e+00
-4.348215e+00
-4.342789e+00
-4.337361e+00
-4.331931e+00
-4.326507e+00
-4.321079e+00
-4.315650e+00
-4.310227e+00
-4.304800e+00
-4.299376e+00
-4.293952e+00
-4.288525e+00
-4.283104e+00
-4.277679e+00
-4.272253e+00
-4.266833e+00
-4.261408e+00
-4.255984e+00
-4.250564e+00
-4.245140e+00
-4.239720e+00
-4.234298e+00
-4.228874e+00
-4.223456e+00
-4.218033e+00
-4.212610e+00
-4.207192e+00
-4.201769e+00
-4.196351e+00
-4.190930e+00
-4.185507e+00
-4.180090e+00
-4.174668e+00
-4.169246e+00
-4.163828e+00
-4.158406e+00
-4.152988e+00
-4.147568e+00
-4.142145e+00
-4.136728e+00
-4.131307e+00
-4.125885e+00
-4.120468e+00
-4.115046e+00
-4.109625e+00
-4.104207e+00
-4.098785e+00
-4.093367e+00
-4.087946e+00
-4.082524e+00
-4.077106e+00
-4.071684e+00
-4.066262e+00
-4.060844e+00
-4.055421e+00
-4.050002e+00
-4.044581e+00
-4.039157e+00
-4.033739e+00
-4.028316e+00
-4.022893e+00
-4.017474e+00
-4.012050e+00
-4.006629e+00
-4.001207e+00
-3.995782e+00
-3.990363e+00
-3.984939e+00
-3.979514e+00
-3.974093e+00
-3.968669e+00
-3.963244e+00
-3.957822e+00
-3.952396e+00
-3.946975e+00
-3.941550e+00
-3.936123e+00
-3.930701e+00
-3.925275e+00
-3.919848e+00
-3.914425e+00
-3.908997e+00
-3.903573e+00
-3.898147e+00
-3.892718e+00
-3.887295e+00
-3.881866e+00
-3.876437e+00
-3.871013e+00
-3.865583e+00
-3.860156e+00
-3.854729e+00
-3.849298e+00
-3.843873e+00
-3.838443e+00
-3.833011e+00
-3.827585e+00
-3.822154e+00
-3.816724e+00
-3.811296e+00
-3.805864e+00
-3.800436e+00
-3.795005e+00
-3.789571e+00
-3.784143e+00
-3.778711e+00
-3.773278e+00
-3.767849e+00
-3.762415e+00
-3.756985e+00
-3.751552e+00
-3.746117e+00
-3.740688e+00
-3.735254e+00
-3.729818e+00
-3.724388e+00
-3.718953e+00
-3.713519e+00
-3.708088e+00
-3.702651e+00
-3.697220e+00
-3.691786e+00
-3.686349e+00
-3.680918e+00
-3.675482e+00
-3.670046e+00
-3.664615e+00
-3.659178e+00
-3.653746e+00
-3.648311e+00
-3.642873e+00
-3.637442e+00
-3.632006e+00
-3.626570e+00
-3.621138e+00
-3.615701e+00
-3.610269e+00
-3.604834e+00
-3.599397e+00
-3.593966e+00
-3.588531e+00
-3.583095e+00
-3.577664e+00
-3.572229e+00
-3.566795e+00
-3.561364e+00
-3.555929e+00
-3.550499e+00
-3.545066e+00
-3.539631e+00
-3.534203e+00
-3.528770e+00
-3.523338e+00
-3.517910e+00
-3.512478e+00
-3.507051e+00
-3.501622e+00
-3.496191e+00
-3.490767e+00
-3.485338e+00
-3.479910e+00
-3.474487e+00
-3.469060e+00
-3.463638e+00
-3.458215e+00
-3.452789e+00
-3.447371e+00
-3.441950e+00
-3.436527e+00
-3.431112e+00
-3.425693e+00
-3.420276e+00
-3.414863e+00
-3.409447e+00
-3.404037e+00
-3.398625e+00
-3.393213e+00
-3.387808e+00
-3.382400e+00
-3.376993e+00
-3.371593e+00
-3.366189e+00
-3.360792e+00
-3.355394e+00
-3.349995e+00
-3.344604e+00
-3.339211e+00
-3.333820e+00
-3.328436e+00
-3.323049e+00
-3.317668e+00
-3.312289e+00
-3.306909e+00
-3.301538e+00
-3.296166e+00
-3.290795e+00
-3.285433e+00
-3.280069e+00
-3.274709e+00
-3.269356e+00
-3.264002e+00
-3.258656e+00
-3.253312e+00
-3.247968e+00
-3.242635e+00
-3.237301e+00
-3.231972e+00
-3.226651e+00
-3.221330e+00
-3.216018e+00
-3.210709e+00
-3.205402e+00
-3.200107e+00
-3.194812e+00
-3.189522e+00
-3.184243e+00
-3.178965e+00
-3.173697e+00
-3.168434e+00
-3.163174e+00
-3.157927e+00
-3.152683e+00
-3.147445e+00
-3.142219e+00
-3.136997e+00
-3.131783e+00
-3.126581e+00
-3.121382e+00
-3.116197e+00
-3.111018e+00
-3.105845e+00
-3.100689e+00
-3.095537e+00
-3.090395e+00
-3.085268e+00
-3.080147e+00
-3.075041e+00
-3.069944e+00
-3.064856e+00
-3.059786e+00
-3.054724e+00
-3.049674e+00
-3.044642e+00
-3.039619e+00
-3.034613e+00
-3.029620e+00
-3.024639e+00
-3.019679e+00
-3.014731e+00
-3.009796e+00
-3.004884e+00
-2.999985e+00
-2.995103e+00
-2.990243e+00
-2.985396e+00
-2.980574e+00
-2.975768e+00
-2.970980e+00
-2.966218e+00
-2.961474e+00
-2.956750e+00
-2.952054e+00
-2.947376e+00
-2.942726e+00
-2.938098e+00
-2.933492e+00
-2.928918e+00
-2.924367e+00
-2.919841e+00
-2.915349e+00
-2.910880e+00
-2.906444e+00
-2.902038e+00
-2.897659e+00
-2.893318e+00
-2.889006e+00
-2.884726e+00
-2.880487e+00
-2.876278e+00
-2.872106e+00
-2.867975e+00
-2.863877e+00
-2.859824e+00
-2.855808e+00
-2.851831e+00
-2.847904e+00
-2.844015e+00
-2.840170e+00
-2.836376e+00
-2.832624e+00
-2.828925e+00
-2.825273e+00
-2.821669e+00
-2.818123e+00
-2.814626e+00
-2.811183e+00
-2.807802e+00
-2.804473e+00
-2.801206e+00
-2.798000e+00
-2.794851e+00
-2.791773e+00
-2.788756e+00
-2.785804e+00
-2.782927e+00
-2.780115e+00
-2.777375e+00
-2.774714e+00
-2.772123e+00
-2.769617e+00
-2.767187e+00
-2.764837e+00
-2.762578e+00
-2.760401e+00
-2.758314e+00
-2.756324e+00
-2.754424e+00
-2.752625e+00
-2.750929e+00
-2.749333e+00
-2.747851e+00
-2.746481e+00
-2.745224e+00
-2.744087e+00
-2.743082e+00
-2.742214e+00
-2.741477e+00
-2.740873e+00
-2.740415e+00
-2.740106e+00
-2.739950e+00
