# vtk DataFile Version 3.0
Monodomain MVF
ASCII
DATASET POLYDATA
POINTS 501 float
0.000000e+00 0.000000e+00 0.000000e+00
1.000000e-02 0.000000e+00 0.000000e+00
2.000000e-02 0.000000e+00 0.000000e+00
3.000000e-02 0.000000e+00 0.000000e+00
4.000000e-02 0.000000e+00 0.000000e+00
5.000000e-02 0.000000e+00 0.000000e+00
6.000000e-02 0.000000e+00 0.000000e+00
7.000000e-02 0.000000e+00 0.000000e+00
8.000000e-02 0.000000e+00 0.000000e+00
9.000000e-02 0.000000e+00 0.000000e+00
1.000000e-01 0.000000e+00 0.000000e+00
1.100000e-01 0.000000e+00 0.000000e+00
1.200000e-01 0.000000e+00 0.000000e+00
1.300000e-01 0.000000e+00 0.000000e+00
1.400000e-01 0.000000e+00 0.000000e+00
1.500000e-01 0.000000e+00 0.000000e+00
1.600000e-01 0.000000e+00 0.000000e+00
1.700000e-01 0.000000e+00 0.000000e+00
1.800000e-01 0.000000e+00 0.000000e+00
1.900000e-01 0.000000e+00 0.000000e+00
2.000000e-01 0.000000e+00 0.000000e+00
2.100000e-01 0.000000e+00 0.000000e+00
2.200000e-01 0.000000e+00 0.000000e+00
2.300000e-01 0.000000e+00 0.000000e+00
2.400000e-01 0.000000e+00 0.000000e+00
2.500000e-01 0.000000e+00 0.000000e+00
2.600000e-01 0.000000e+00 0.000000e+00
2.700000e-01 0.000000e+00 0.000000e+00
2.800000e-01 0.000000e+00 0.000000e+00
2.900000e-01 0.000000e+00 0.000000e+00
3.000000e-01 0.000000e+00 0.000000e+00
3.100000e-01 0.000000e+00 0.000000e+00
3.200000e-01 0.000000e+00 0.000000e+00
3.300000e-01 0.000000e+00 0.000000e+00
3.400000e-01 0.000000e+00 0.000000e+00
3.500000e-01 0.000000e+00 0.000000e+00
3.600000e-01 0.000000e+00 0.000000e+00
3.700000e-01 0.000000e+00 0.000000e+00
3.800000e-01 0.000000e+00 0.000000e+00
3.900000e-01 0.000000e+00 0.000000e+00
4.000000e-01 0.000000e+00 0.000000e+00
4.100000e-01 0.000000e+00 0.000000e+00
4.200000e-01 0.000000e+00 0.000000e+00
4.300000e-01 0.000000e+00 0.000000e+00
4.400000e-01 0.000000e+00 0.000000e+00
4.500000e-01 0.000000e+00 0.000000e+00
4.600000e-01 0.000000e+00 0.000000e+00
4.700000e-01 0.000000e+00 0.000000e+00
4.800000e-01 0.000000e+00 0.000000e+00
4.900000e-01 0.000000e+00 0.000000e+00
5.000000e-01 0.000000e+00 0.000000e+00
5.100000e-01 0.000000e+00 0.000000e+00
5.200000e-01 0.000000e+00 0.000000e+00
5.300000e-01 0.000000e+00 0.000000e+00
5.400000e-01 0.000000e+00 0.000000e+00
5.500000e-01 0.000000e+00 0.000000e+00
5.600000e-01 0.000000e+00 0.000000e+00
5.700000e-01 0.000000e+00 0.000000e+00
5.800000e-01 0.000000e+00 0.000000e+00
5.900000e-01 0.000000e+00 0.000000e+00
6.000000e-01 0.000000e+00 0.000000e+00
6.100000e-01 0.000000e+00 0.000000e+00
6.200000e-01 0.000000e+00 0.000000e+00
6.300000e-01 0.000000e+00 0.000000e+00
6.400000e-01 0.000000e+00 0.000000e+00
6.500000e-01 0.000000e+00 0.000000e+00
6.600000e-01 0.000000e+00 0.000000e+00
6.700000e-01 0.000000e+00 0.000000e+00
6.800000e-01 0.000000e+00 0.000000e+00
6.900000e-01 0.000000e+00 0.000000e+00
7.000000e-01 0.000000e+00 0.000000e+00
7.100000e-01 0.000000e+00 0.000000e+00
7.200000e-01 0.000000e+00 0.000000e+00
7.300000e-01 0.000000e+00 0.000000e+00
7.400000e-01 0.000000e+00 0.000000e+00
7.500000e-01 0.000000e+00 0.000000e+00
7.600000e-01 0.000000e+00 0.000000e+00
7.700000e-01 0.000000e+00 0.000000e+00
7.800000e-01 0.000000e+00 0.000000e+00
7.900000e-01 0.000000e+00 0.000000e+00
8.000000e-01 0.000000e+00 0.000000e+00
8.100000e-01 0.000000e+00 0.000000e+00
8.200000e-01 0.000000e+00 0.000000e+00
8.300000e-01 0.000000e+00 0.000000e+00
8.400000e-01 0.000000e+00 0.000000e+00
8.500000e-01 0.000000e+00 0.000000e+00
8.600000e-01 0.000000e+00 0.000000e+00
8.700000e-01 0.000000e+00 0.000000e+00
8.800000e-01 0.000000e+00 0.000000e+00
8.900000e-01 0.000000e+00 0.000000e+00
9.000000e-01 0.000000e+00 0.000000e+00
9.100000e-01 0.000000e+00 0.000000e+00
9.200000e-01 0.000000e+00 0.000000e+00
9.300000e-01 0.000000e+00 0.000000e+00
9.400000e-01 0.000000e+00 0.000000e+00
9.500000e-01 0.000000e+00 0.000000e+00
9.600000e-01 0.000000e+00 0.000000e+00
9.700000e-01 0.000000e+00 0.000000e+00
9.800000e-01 0.000000e+00 0.000000e+00
9.900000e-01 0.000000e+00 0.000000e+00
1.000000e+00 0.000000e+00 0.000000e+00
1.010000e+00 0.000000e+00 0.000000e+00
1.020000e+00 0.000000e+00 0.000000e+00
1.030000e+00 0.000000e+00 0.000000e+00
1.040000e+00 0.000000e+00 0.000000e+00
1.050000e+00 0.000000e+00 0.000000e+00
1.060000e+00 0.000000e+00 0.000000e+00
1.070000e+00 0.000000e+00 0.000000e+00
1.080000e+00 0.000000e+00 0.000000e+00
1.090000e+00 0.000000e+00 0.000000e+00
1.100000e+00 0.000000e+00 0.000000e+00
1.110000e+00 0.000000e+00 0.000000e+00
1.120000e+00 0.000000e+00 0.000000e+00
1.130000e+00 0.000000e+00 0.000000e+00
1.140000e+00 0.000000e+00 0.000000e+00
1.150000e+00 0.000000e+00 0.000000e+00
1.160000e+00 0.000000e+00 0.000000e+00
1.170000e+00 0.000000e+00 0.000000e+00
1.180000e+00 0.000000e+00 0.000000e+00
1.190000e+00 0.000000e+00 0.000000e+00
1.200000e+00 0.000000e+00 0.000000e+00
1.210000e+00 0.000000e+00 0.000000e+00
1.220000e+00 0.000000e+00 0.000000e+00
1.230000e+00 0.000000e+00 0.000000e+00
1.240000e+00 0.000000e+00 0.000000e+00
1.250000e+00 0.000000e+00 0.000000e+00
1.260000e+00 0.000000e+00 0.000000e+00
1.270000e+00 0.000000e+00 0.000000e+00
1.280000e+00 0.000000e+00 0.000000e+00
1.290000e+00 0.000000e+00 0.000000e+00
1.300000e+00 0.000000e+00 0.000000e+00
1.310000e+00 0.000000e+00 0.000000e+00
1.320000e+00 0.000000e+00 0.000000e+00
1.330000e+00 0.000000e+00 0.000000e+00
1.340000e+00 0.000000e+00 0.000000e+00
1.350000e+00 0.000000e+00 0.000000e+00
1.360000e+00 0.000000e+00 0.000000e+00
1.370000e+00 0.000000e+00 0.000000e+00
1.380000e+00 0.000000e+00 0.000000e+00
1.390000e+00 0.000000e+00 0.000000e+00
1.400000e+00 0.000000e+00 0.000000e+00
1.410000e+00 0.000000e+00 0.000000e+00
1.420000e+00 0.000000e+00 0.000000e+00
1.430000e+00 0.000000e+00 0.000000e+00
1.440000e+00 0.000000e+00 0.000000e+00
1.450000e+00 0.000000e+00 0.000000e+00
1.460000e+00 0.000000e+00 0.000000e+00
1.470000e+00 0.000000e+00 0.000000e+00
1.480000e+00 0.000000e+00 0.000000e+00
1.490000e+00 0.000000e+00 0.000000e+00
1.500000e+00 0.000000e+00 0.000000e+00
1.510000e+00 0.000000e+00 0.000000e+00
1.520000e+00 0.000000e+00 0.000000e+00
1.530000e+00 0.000000e+00 0.000000e+00
1.540000e+00 0.000000e+00 0.000000e+00
1.550000e+00 0.000000e+00 0.000000e+00
1.560000e+00 0.000000e+00 0.000000e+00
1.570000e+00 0.000000e+00 0.000000e+00
1.580000e+00 0.000000e+00 0.000000e+00
1.590000e+00 0.000000e+00 0.000000e+00
1.600000e+00 0.000000e+00 0.000000e+00
1.610000e+00 0.000000e+00 0.000000e+00
1.620000e+00 0.000000e+00 0.000000e+00
1.630000e+00 0.000000e+00 0.000000e+00
1.640000e+00 0.000000e+00 0.000000e+00
1.650000e+00 0.000000e+00 0.000000e+00
1.660000e+00 0.000000e+00 0.000000e+00
1.670000e+00 0.000000e+00 0.000000e+00
1.680000e+00 0.000000e+00 0.000000e+00
1.690000e+00 0.000000e+00 0.000000e+00
1.700000e+00 0.000000e+00 0.000000e+00
1.710000e+00 0.000000e+00 0.000000e+00
1.720000e+00 0.000000e+00 0.000000e+00
1.730000e+00 0.000000e+00 0.000000e+00
1.740000e+00 0.000000e+00 0.000000e+00
1.750000e+00 0.000000e+00 0.000000e+00
1.760000e+00 0.000000e+00 0.000000e+00
1.770000e+00 0.000000e+00 0.000000e+00
1.780000e+00 0.000000e+00 0.000000e+00
1.790000e+00 0.000000e+00 0.000000e+00
1.800000e+00 0.000000e+00 0.000000e+00
1.810000e+00 0.000000e+00 0.000000e+00
1.820000e+00 0.000000e+00 0.000000e+00
1.830000e+00 0.000000e+00 0.000000e+00
1.840000e+00 0.000000e+00 0.000000e+00
1.850000e+00 0.000000e+00 0.000000e+00
1.860000e+00 0.000000e+00 0.000000e+00
1.870000e+00 0.000000e+00 0.000000e+00
1.880000e+00 0.000000e+00 0.000000e+00
1.890000e+00 0.000000e+00 0.000000e+00
1.900000e+00 0.000000e+00 0.000000e+00
1.910000e+00 0.000000e+00 0.000000e+00
1.920000e+00 0.000000e+00 0.000000e+00
1.930000e+00 0.000000e+00 0.000000e+00
1.940000e+00 0.000000e+00 0.000000e+00
1.950000e+00 0.000000e+00 0.000000e+00
1.960000e+00 0.000000e+00 0.000000e+00
1.970000e+00 0.000000e+00 0.000000e+00
1.980000e+00 0.000000e+00 0.000000e+00
1.990000e+00 0.000000e+00 0.000000e+00
2.000000e+00 0.000000e+00 0.000000e+00
2.010000e+00 0.000000e+00 0.000000e+00
2.020000e+00 0.000000e+00 0.000000e+00
2.030000e+00 0.000000e+00 0.000000e+00
2.040000e+00 0.000000e+00 0.000000e+00
2.050000e+00 0.000000e+00 0.000000e+00
2.060000e+00 0.000000e+00 0.000000e+00
2.070000e+00 0.000000e+00 0.000000e+00
2.080000e+00 0.000000e+00 0.000000e+00
2.090000e+00 0.000000e+00 0.000000e+00
2.100000e+00 0.000000e+00 0.000000e+00
2.110000e+00 0.000000e+00 0.000000e+00
2.120000e+00 0.000000e+00 0.000000e+00
2.130000e+00 0.000000e+00 0.000000e+00
2.140000e+00 0.000000e+00 0.000000e+00
2.150000e+00 0.000000e+00 0.000000e+00
2.160000e+00 0.000000e+00 0.000000e+00
2.170000e+00 0.000000e+00 0.000000e+00
2.180000e+00 0.000000e+00 0.000000e+00
2.190000e+00 0.000000e+00 0.000000e+00
2.200000e+00 0.000000e+00 0.000000e+00
2.210000e+00 0.000000e+00 0.000000e+00
2.220000e+00 0.000000e+00 0.000000e+00
2.230000e+00 0.000000e+00 0.000000e+00
2.240000e+00 0.000000e+00 0.000000e+00
2.250000e+00 0.000000e+00 0.000000e+00
2.260000e+00 0.000000e+00 0.000000e+00
2.270000e+00 0.000000e+00 0.000000e+00
2.280000e+00 0.000000e+00 0.000000e+00
2.290000e+00 0.000000e+00 0.000000e+00
2.300000e+00 0.000000e+00 0.000000e+00
2.310000e+00 0.000000e+00 0.000000e+00
2.320000e+00 0.000000e+00 0.000000e+00
2.330000e+00 0.000000e+00 0.000000e+00
2.340000e+00 0.000000e+00 0.000000e+00
2.350000e+00 0.000000e+00 0.000000e+00
2.360000e+00 0.000000e+00 0.000000e+00
2.370000e+00 0.000000e+00 0.000000e+00
2.380000e+00 0.000000e+00 0.000000e+00
2.390000e+00 0.000000e+00 0.000000e+00
2.400000e+00 0.000000e+00 0.000000e+00
2.410000e+00 0.000000e+00 0.000000e+00
2.420000e+00 0.000000e+00 0.000000e+00
2.430000e+00 0.000000e+00 0.000000e+00
2.440000e+00 0.000000e+00 0.000000e+00
2.450000e+00 0.000000e+00 0.000000e+00
2.460000e+00 0.000000e+00 0.000000e+00
2.470000e+00 0.000000e+00 0.000000e+00
2.480000e+00 0.000000e+00 0.000000e+00
2.490000e+00 0.000000e+00 0.000000e+00
2.500000e+00 0.000000e+00 0.000000e+00
2.510000e+00 0.000000e+00 0.000000e+00
2.520000e+00 0.000000e+00 0.000000e+00
2.530000e+00 0.000000e+00 0.000000e+00
[...]
POINT_DATA 501
SCALARS vm float 1
LOOKUP_TABLE default
7.692897e+00
7.693202e+00
7.693811e+00
7.694715e+00
7.695903e+00
7.697394e+00
7.699083e+00
7.700965e+00
7.703043e+00
7.705314e+00
7.707751e+00
7.710359e+00
7.713129e+00
7.716046e+00
7.719111e+00
7.722317e+00
7.725651e+00
7.729116e+00
7.732703e+00
7.736400e+00
7.740213e+00
7.744133e+00
7.748145e+00
7.752262e+00
7.756471e+00
7.760760e+00
7.765140e+00
7.769601e+00
7.774131e+00
7.778740e+00
7.783419e+00
7.788159e+00
7.792969e+00
7.797833e+00
7.802760e+00
7.807745e+00
7.812774e+00
7.817862e+00
7.822998e+00
7.828173e+00
7.833400e+00
7.838668e+00
7.843971e+00
7.849319e+00
7.854696e+00
7.860116e+00
7.865571e+00
7.871049e+00
7.876566e+00
7.882114e+00
7.887683e+00
7.893286e+00
7.898911e+00
7.904563e+00
7.910242e+00
7.915936e+00
7.921660e+00
7.927406e+00
7.933165e+00
7.938951e+00
7.944755e+00
7.950572e+00
7.956413e+00
7.962264e+00
7.968138e+00
7.974029e+00
7.979926e+00
7.985847e+00
7.991783e+00
7.997725e+00
8.003687e+00
8.009658e+00
8.015644e+00
8.021646e+00
8.027650e+00
8.033674e+00
8.039711e+00
8.045750e+00
8.051808e+00
8.057875e+00
8.063948e+00
8.070037e+00
8.076128e+00
8.082236e+00
8.088355e+00
8.094474e+00
8.100610e+00
8.106756e+00
8.112903e+00
8.119066e+00
8.125231e+00
8.131410e+00
8.137599e+00
8.143787e+00
8.149992e+00
8.156206e+00
8.162419e+00
8.168648e+00
8.174880e+00
8.181122e+00
8.187375e+00
8.193626e+00
8.199893e+00
8.206169e+00
8.212444e+00
8.218734e+00
8.225030e+00
8.231328e+00
8.237641e+00
8.243953e+00
8.250278e+00
8.256613e+00
8.262946e+00
8.269294e+00
8.275650e+00
8.282005e+00
8.288375e+00
8.294746e+00
8.301128e+00
8.307520e+00
8.313910e+00
8.320315e+00
8.326728e+00
8.333141e+00
8.339567e+00
8.345997e+00
8.352435e+00
8.358884e+00
8.365330e+00
8.371793e+00
8.378263e+00
8.384731e+00
8.391215e+00
8.397705e+00
8.404196e+00
8.410702e+00
8.417206e+00
8.423725e+00
8.430252e+00
8.436777e+00
8.443318e+00
8.449866e+00
8.456413e+00
8.462976e+00
8.469539e+00
8.476114e+00
8.482699e+00
8.489281e+00
8.495879e+00
8.502485e+00
8.509090e+00
8.515710e+00
8.522334e+00
8.528965e+00
8.535608e+00
8.542249e+00
8.548906e+00
8.555571e+00
8.562234e+00
8.568913e+00
8.575599e+00
8.582286e+00
8.588987e+00
8.595689e+00
8.602404e+00
8.609128e+00
8.615851e+00
8.622590e+00
8.629336e+00
8.636083e+00
8.642844e+00
8.649608e+00
8.656382e+00
8.663168e+00
8.669951e+00
8.676751e+00
8.683560e+00
8.690367e+00
8.697190e+00
8.704018e+00
8.710853e+00
8.717700e+00
8.724546e+00
8.731408e+00
8.738280e+00
8.745149e+00
8.752036e+00
8.758930e+00
8.765825e+00
8.772736e+00
8.779647e+00
8.786572e+00
8.793508e+00
8.800442e+00
8.807393e+00
8.814353e+00
8.821313e+00
8.828289e+00
8.835269e+00
8.842259e+00
8.849261e+00
8.856262e+00
8.863280e+00
8.870308e+00
8.877335e+00
8.884379e+00
8.891429e+00
8.898486e+00
8.905557e+00
8.912628e+00
8.919715e+00
8.926813e+00
8.933910e+00
8.941024e+00
8.948148e+00
8.955273e+00
8.962415e+00
8.969559e+00
8.976717e+00
8.983888e+00
8.991057e+00
8.998245e+00
9.005443e+00
9.012642e+00
9.019858e+00
9.027080e+00
9.034312e+00
9.041558e+00
9.048804e+00
9.056069e+00
9.063345e+00
9.070621e+00
9.077916e+00
9.085218e+00
9.092527e+00
9.099853e+00
9.107181e+00
9.114525e+00
9.121882e+00
9.129239e+00
9.136615e+00
9.144003e+00
9.151393e+00
9.158802e+00
9.166215e+00
9.173643e+00
9.181085e+00
9.188528e+00
9.195991e+00
9.203466e+00
9.210943e+00
9.218440e+00
9.225944e+00
9.233459e+00
9.240992e+00
9.248526e+00
9.256080e+00
9.263648e+00
9.271217e+00
9.278807e+00
9.286408e+00
9.294016e+00
9.301643e+00
9.309274e+00
9.316924e+00
9.324589e+00
9.332256e+00
9.339945e+00
9.347648e+00
9.355354e+00
9.363082e+00
9.370816e+00
9.378567e+00
9.386336e+00
9.394107e+00
9.401900e+00
9.409710e+00
9.417522e+00
9.425357e+00
9.433202e+00
9.441061e+00
9.448940e+00
9.456822e+00
9.464727e+00
9.472649e+00
9.480575e+00
9.488524e+00
9.496488e+00
9.504460e+00
9.512455e+00
9.520458e+00
9.528480e+00
9.536523e+00
9.544569e+00
9.552640e+00
9.560729e+00
9.568823e+00
9.576943e+00
9.585074e+00
9.593223e+00
9.601394e+00
9.609569e+00
9.617770e+00
9.625992e+00
9.634218e+00
9.642471e+00
9.650739e+00
9.659022e+00
9.667329e+00
9.675644e+00
9.683983e+00
9.692345e+00
9.700712e+00
9.709108e+00
9.717522e+00
9.725947e+00
9.734399e+00
9.742862e+00
9.751349e+00
9.759860e+00
9.768378e+00
9.776925e+00
9.785494e+00
9.794071e+00
9.802679e+00
9.811301e+00
9.819945e+00
9.828615e+00
9.837294e+00
9.846003e+00
9.854736e+00
9.863477e+00
9.872250e+00
9.881042e+00
9.889852e+00
9.898692e+00
9.907543e+00
9.916422e+00
9.925329e+00
9.934244e+00
9.943192e+00
9.952165e+00
9.961150e+00
9.970168e+00
9.979202e+00
9.988261e+00
9.997352e+00
1.000645e+01
1.001558e+01
1.002475e+01
1.003392e+01
1.004312e+01
1.005235e+01
1.006160e+01
1.007088e+01
1.008018e+01
1.008951e+01
1.009886e+01
1.010823e+01
1.011764e+01
1.012707e+01
1.013651e+01
1.014600e+01
1.015550e+01
1.016502e+01
1.017459e+01
1.018416e+01
1.019377e+01
1.020341e+01
1.021306e+01
1.022275e+01
1.023246e+01
1.024219e+01
1.025196e+01
1.026174e+01
1.027156e+01
1.028141e+01
1.029127e+01
1.030117e+01
1.031109e+01
1.032104e+01
1.033102e+01
1.034101e+01
1.035104e+01
1.036110e+01
1.037117e+01
1.038128e+01
1.039141e+01
1.040156e+01
1.041175e+01
1.042195e+01
1.043218e+01
1.044244e+01
1.045272e+01
1.046302e+01
1.047336e+01
1.048370e+01
1.049408e+01
1.050448e+01
1.051490e+01
1.052535e+01
1.053581e+01
1.054630e+01
1.055682e+01
1.056734e+01
1.057790e+01
1.058847e+01
1.059905e+01
1.060967e+01
1.062028e+01
1.063093e+01
1.064160e+01
1.065226e+01
1.066295e+01
1.067366e+01
1.068437e+01
1.069510e+01
1.070584e+01
1.071659e+01
1.072736e+01
1.073812e+01
1.074889e+01
1.075968e+01
1.077046e+01
1.078125e+01
1.079205e+01
1.080284e+01
1.081364e+01
1.082442e+01
1.083521e+01
1.084600e+01
1.085677e+01
1.086754e+01
1.087830e+01
1.088904e+01
1.089979e+01
1.091050e+01
1.092119e+01
1.093188e+01
1.094253e+01
1.095317e+01
1.096378e+01
1.097435e+01
1.098490e+01
1.099541e+01
1.100588e+01
1.101633e+01
1.102671e+01
1.103705e+01
1.104737e+01
1.105760e+01
1.106780e+01
1.107793e+01
1.108800e+01
1.109802e+01
1.110795e+01
1.111782e+01
1.112762e+01
1.113732e+01
1.114695e+01
1.115649e+01
1.116593e+01
1.117529e+01
1.118453e+01
1.119366e+01
1.120270e+01
1.121159e+01
1.122038e+01
1.122905e+01
1.123756e+01
1.124596e+01
1.125419e+01
1.126228e+01
1.127022e+01
1.127798e+01
1.128558e+01
1.129301e+01
1.130023e+01
1.130728e+01
1.131413e+01
1.132076e+01
1.132720e+01
1.133339e+01
1.133936e+01
1.134510e+01
1.135057e+01
1.135579e+01
1.136075e+01
1.136541e+01
1.136979e+01
1.137389e+01
1.137764e+01
1.138108e+01
1.138422e+01
1.138698e+01
1.138932e+01
1.139130e+01
1.139294e+01
1.139422e+01
1.139509e+01
1.139553e+01
