# vtk DataFile Version 3.0
Monodomain MVF
ASCII
DATASET POLYDATA
POINTS 501 float
0.000000e+00 0.000000e+00 0.000000e+00
1.000000e-02 0.000000e+00 0.000000e+00
2.000000e-02 0.000000e+00 0.000000e+00
3.000000e-02 0.000000e+00 0.000000e+00
4.000000e-02 0.000000e+00 0.000000e+00
5.000000e-02 0.000000e+00 0.000000e+00
6.000000e-02 0.000000e+00 0.000000e+00
7.000000e-02 0.000000e+00 0.000000e+00
8.000000e-02 0.000000e+00 0.000000e+00
9.000000e-02 0.000000e+00 0.000000e+00
1.000000e-01 0.000000e+00 0.000000e+00
1.100000e-01 0.000000e+00 0.000000e+00
1.200000e-01 0.000000e+00 0.000000e+00
1.300000e-01 0.000000e+00 0.000000e+00
1.400000e-01 0.000000e+00 0.000000e+00
1.500000e-01 0.000000e+00 0.000000e+00
1.600000e-01 0.000000e+00 0.000000e+00
1.700000e-01 0.000000e+00 0.000000e+00
1.800000e-01 0.000000e+00 0.000000e+00
1.900000e-01 0.000000e+00 0.000000e+00
2.000000e-01 0.000000e+00 0.000000e+00
2.100000e-01 0.000000e+00 0.000000e+00
2.200000e-01 0.000000e+00 0.000000e+00
2.300000e-01 0.000000e+00 0.000000e+00
2.400000e-01 0.000000e+00 0.000000e+00
2.500000e-01 0.000000e+00 0.000000e+00
2.600000e-01 0.000000e+00 0.000000e+00
2.700000e-01 0.000000e+00 0.000000e+00
2.800000e-01 0.000000e+00 0.000000e+00
2.900000e-01 0.000000e+00 0.000000e+00
3.000000e-01 0.000000e+00 0.000000e+00
3.100000e-01 0.000000e+00 0.000000e+00
3.200000e-01 0.000000e+00 0.000000e+00
3.300000e-01 0.000000e+00 0.000000e+00
3.400000e-01 0.000000e+00 0.000000e+00
3.500000e-01 0.000000e+00 0.000000e+00
3.600000e-01 0.000000e+00 0.000000e+00
3.700000e-01 0.000000e+00 0.000000e+00
3.800000e-01 0.000000e+00 0.000000e+00
3.900000e-01 0.000000e+00 0.000000e+00
4.000000e-01 0.000000e+00 0.000000e+00
4.100000e-01 0.000000e+00 0.000000e+00
4.200000e-01 0.000000e+00 0.000000e+00
4.300000e-01 0.000000e+00 0.000000e+00
4.400000e-01 0.000000e+00 0.000000e+00
4.500000e-01 0.000000e+00 0.000000e+00
4.600000e-01 0.000000e+00 0.000000e+00
4.700000e-01 0.000000e+00 0.000000e+00
4.800000e-01 0.000000e+00 0.000000e+00
4.900000e-01 0.000000e+00 0.000000e+00
5.000000e-01 0.000000e+00 0.000000e+00
5.100000e-01 0.000000e+00 0.000000e+00
5.200000e-01 0.000000e+00 0.000000e+00
5.300000e-01 0.000000e+00 0.000000e+00
5.400000e-01 0.000000e+00 0.000000e+00
5.500000e-01 0.000000e+00 0.000000e+00
5.600000e-01 0.000000e+00 0.000000e+00
5.700000e-01 0.000000e+00 0.000000e+00
5.800000e-01 0.000000e+00 0.000000e+00
5.900000e-01 0.000000e+00 0.000000e+00
6.000000e-01 0.000000e+00 0.000000e+00
6.100000e-01 0.000000e+00 0.000000e+00
6.200000e-01 0.000000e+00 0.000000e+00
6.300000e-01 0.000000e+00 0.000000e+00
6.400000e-01 0.000000e+00 0.000000e+00
6.500000e-01 0.000000e+00 0.000000e+00
6.600000e-01 0.000000e+00 0.000000e+00
6.700000e-01 0.000000e+00 0.000000e+00
6.800000e-01 0.000000e+00 0.000000e+00
6.900000e-01 0.000000e+00 0.000000e+00
7.000000e-01 0.000000e+00 0.000000e+00
7.100000e-01 0.000000e+00 0.000000e+00
7.200000e-01 0.000000e+00 0.000000e+00
7.300000e-01 0.000000e+00 0.000000e+00
7.400000e-01 0.000000e+00 0.000000e+00
7.500000e-01 0.000000e+00 0.000000e+00
7.600000e-01 0.000000e+00 0.000000e+00
7.700000e-01 0.000000e+00 0.000000e+00
7.800000e-01 0.000000e+00 0.000000e+00
7.900000e-01 0.000000e+00 0.000000e+00
8.000000e-01 0.000000e+00 0.000000e+00
8.100000e-01 0.000000e+00 0.000000e+00
8.200000e-01 0.000000e+00 0.000000e+00
8.300000e-01 0.000000e+00 0.000000e+00
8.400000e-01 0.000000e+00 0.000000e+00
8.500000e-01 0.000000e+00 0.000000e+00
8.600000e-01 0.000000e+00 0.000000e+00
8.700000e-01 0.000000e+00 0.000000e+00
8.800000e-01 0.000000e+00 0.000000e+00
8.900000e-01 0.000000e+00 0.000000e+00
9.000000e-01 0.000000e+00 0.000000e+00
9.100000e-01 0.000000e+00 0.000000e+00
9.200000e-01 0.000000e+00 0.000000e+00
9.300000e-01 0.000000e+00 0.000000e+00
9.400000e-01 0.000000e+00 0.000000e+00
9.500000e-01 0.000000e+00 0.000000e+00
9.600000e-01 0.000000e+00 0.000000e+00
9.700000e-01 0.000000e+00 0.000000e+00
9.800000e-01 0.000000e+00 0.000000e+00
9.900000e-01 0.000000e+00 0.000000e+00
1.000000e+00 0.000000e+00 0.000000e+00
1.010000e+00 0.000000e+00 0.000000e+00
1.020000e+00 0.000000e+00 0.000000e+00
1.030000e+00 0.000000e+00 0.000000e+00
1.040000e+00 0.000000e+00 0.000000e+00
1.050000e+00 0.000000e+00 0.000000e+00
1.060000e+00 0.000000e+00 0.000000e+00
1.070000e+00 0.000000e+00 0.000000e+00
1.080000e+00 0.000000e+00 0.000000e+00
1.090000e+00 0.000000e+00 0.000000e+00
1.100000e+00 0.000000e+00 0.000000e+00
1.110000e+00 0.000000e+00 0.000000e+00
1.120000e+00 0.000000e+00 0.000000e+00
1.130000e+00 0.000000e+00 0.000000e+00
1.140000e+00 0.000000e+00 0.000000e+00
1.150000e+00 0.000000e+00 0.000000e+00
1.160000e+00 0.000000e+00 0.000000e+00
1.170000e+00 0.000000e+00 0.000000e+00
1.180000e+00 0.000000e+00 0.000000e+00
1.190000e+00 0.000000e+00 0.000000e+00
1.200000e+00 0.000000e+00 0.000000e+00
1.210000e+00 0.000000e+00 0.000000e+00
1.220000e+00 0.000000e+00 0.000000e+00
1.230000e+00 0.000000e+00 0.000000e+00
1.240000e+00 0.000000e+00 0.000000e+00
1.250000e+00 0.000000e+00 0.000000e+00
1.260000e+00 0.000000e+00 0.000000e+00
1.270000e+00 0.000000e+00 0.000000e+00
1.280000e+00 0.000000e+00 0.000000e+00
1.290000e+00 0.000000e+00 0.000000e+00
1.300000e+00 0.000000e+00 0.000000e+00
1.310000e+00 0.000000e+00 0.000000e+00
1.320000e+00 0.000000e+00 0.000000e+00
1.330000e+00 0.000000e+00 0.000000e+00
1.340000e+00 0.000000e+00 0.000000e+00
1.350000e+00 0.000000e+00 0.000000e+00
1.360000e+00 0.000000e+00 0.000000e+00
1.370000e+00 0.000000e+00 0.000000e+00
1.380000e+00 0.000000e+00 0.000000e+00
1.390000e+00 0.000000e+00 0.000000e+00
1.400000e+00 0.000000e+00 0.000000e+00
1.410000e+00 0.000000e+00 0.000000e+00
1.420000e+00 0.000000e+00 0.000000e+00
1.430000e+00 0.000000e+00 0.000000e+00
1.440000e+00 0.000000e+00 0.000000e+00
1.450000e+00 0.000000e+00 0.000000e+00
1.460000e+00 0.000000e+00 0.000000e+00
1.470000e+00 0.000000e+00 0.000000e+00
1.480000e+00 0.000000e+00 0.000000e+00
1.490000e+00 0.000000e+00 0.000000e+00
1.500000e+00 0.000000e+00 0.000000e+00
1.510000e+00 0.000000e+00 0.000000e+00
1.520000e+00 0.000000e+00 0.000000e+00
1.530000e+00 0.000000e+00 0.000000e+00
1.540000e+00 0.000000e+00 0.000000e+00
1.550000e+00 0.000000e+00 0.000000e+00
1.560000e+00 0.000000e+00 0.000000e+00
1.570000e+00 0.000000e+00 0.000000e+00
1.580000e+00 0.000000e+00 0.000000e+00
1.590000e+00 0.000000e+00 0.000000e+00
1.600000e+00 0.000000e+00 0.000000e+00
1.610000e+00 0.000000e+00 0.000000e+00
1.620000e+00 0.000000e+00 0.000000e+00
1.630000e+00 0.000000e+00 0.000000e+00
1.640000e+00 0.000000e+00 0.000000e+00
1.650000e+00 0.000000e+00 0.000000e+00
1.660000e+00 0.000000e+00 0.000000e+00
1.670000e+00 0.000000e+00 0.000000e+00
1.680000e+00 0.000000e+00 0.000000e+00
1.690000e+00 0.000000e+00 0.000000e+00
1.700000e+00 0.000000e+00 0.000000e+00
1.710000e+00 0.000000e+00 0.000000e+00
1.720000e+00 0.000000e+00 0.000000e+00
1.730000e+00 0.000000e+00 0.000000e+00
1.740000e+00 0.000000e+00 0.000000e+00
1.750000e+00 0.000000e+00 0.000000e+00
1.760000e+00 0.000000e+00 0.000000e+00
1.770000e+00 0.000000e+00 0.000000e+00
1.780000e+00 0.000000e+00 0.000000e+00
1.790000e+00 0.000000e+00 0.000000e+00
1.800000e+00 0.000000e+00 0.000000e+00
1.810000e+00 0.000000e+00 0.000000e+00
1.820000e+00 0.000000e+00 0.000000e+00
1.830000e+00 0.000000e+00 0.000000e+00
1.840000e+00 0.000000e+00 0.000000e+00
1.850000e+00 0.000000e+00 0.000000e+00
1.860000e+00 0.000000e+00 0.000000e+00
1.870000e+00 0.000000e+00 0.000000e+00
1.880000e+00 0.000000e+00 0.000000e+00
1.890000e+00 0.000000e+00 0.000000e+00
1.900000e+00 0.000000e+00 0.000000e+00
1.910000e+00 0.000000e+00 0.000000e+00
1.920000e+00 0.000000e+00 0.000000e+00
1.930000e+00 0.000000e+00 0.000000e+00
1.940000e+00 0.000000e+00 0.000000e+00
1.950000e+00 0.000000e+00 0.000000e+00
1.960000e+00 0.000000e+00 0.000000e+00
1.970000e+00 0.000000e+00 0.000000e+00
1.980000e+00 0.000000e+00 0.000000e+00
1.990000e+00 0.000000e+00 0.000000e+00
2.000000e+00 0.000000e+00 0.000000e+00
2.010000e+00 0.000000e+00 0.000000e+00
2.020000e+00 0.000000e+00 0.000000e+00
2.030000e+00 0.000000e+00 0.000000e+00
2.040000e+00 0.000000e+00 0.000000e+00
2.050000e+00 0.000000e+00 0.000000e+00
2.060000e+00 0.000000e+00 0.000000e+00
2.070000e+00 0.000000e+00 0.000000e+00
2.080000e+00 0.000000e+00 0.000000e+00
2.090000e+00 0.000000e+00 0.000000e+00
2.100000e+00 0.000000e+00 0.000000e+00
2.110000e+00 0.000000e+00 0.000000e+00
2.120000e+00 0.000000e+00 0.000000e+00
2.130000e+00 0.000000e+00 0.000000e+00
2.140000e+00 0.000000e+00 0.000000e+00
2.150000e+00 0.000000e+00 0.000000e+00
2.160000e+00 0.000000e+00 0.000000e+00
2.170000e+00 0.000000e+00 0.000000e+00
2.180000e+00 0.000000e+00 0.000000e+00
2.190000e+00 0.000000e+00 0.000000e+00
2.200000e+00 0.000000e+00 0.000000e+00
2.210000e+00 0.000000e+00 0.000000e+00
2.220000e+00 0.000000e+00 0.000000e+00
2.230000e+00 0.000000e+00 0.000000e+00
2.240000e+00 0.000000e+00 0.000000e+00
2.250000e+00 0.000000e+00 0.000000e+00
2.260000e+00 0.000000e+00 0.000000e+00
2.270000e+00 0.000000e+00 0.000000e+00
2.280000e+00 0.000000e+00 0.000000e+00
2.290000e+00 0.000000e+00 0.000000e+00
2.300000e+00 0.000000e+00 0.000000e+00
2.310000e+00 0.000000e+00 0.000000e+00
2.320000e+00 0.000000e+00 0.000000e+00
2.330000e+00 0.000000e+00 0.000000e+00
2.340000e+00 0.000000e+00 0.000000e+00
2.350000e+00 0.000000e+00 0.000000e+00
2.360000e+00 0.000000e+00 0.000000e+00
2.370000e+00 0.000000e+00 0.000000e+00
2.380000e+00 0.000000e+00 0.000000e+00
2.390000e+00 0.000000e+00 0.000000e+00
2.400000e+00 0.000000e+00 0.000000e+00
2.410000e+00 0.000000e+00 0.000000e+00
2.420000e+00 0.000000e+00 0.000000e+00
2.430000e+00 0.000000e+00 0.000000e+00
2.440000e+00 0.000000e+00 0.000000e+00
2.450000e+00 0.000000e+00 0.000000e+00
2.460000e+00 0.000000e+00 0.000000e+00
2.470000e+00 0.000000e+00 0.000000e+00
2.480000e+00 0.000000e+00 0.000000e+00
2.490000e+00 0.000000e+00 0.000000e+00
2.500000e+00 0.000000e+00 0.000000e+00
2.510000e+00 0.000000e+00 0.000000e+00
2.520000e+00 0.000000e+00 0.000000e+00
2.530000e+00 0.000000e+00 0.000000e+00
[...]
POINT_DATA 501
SCALARS vm float 1
LOOKUP_TABLE default
-8.556306e+00
-8.556055e+00
-8.555555e+00
-8.554811e+00
-8.553835e+00
-8.552616e+00
-8.551224e+00
-8.549660e+00
-8.547927e+00
-8.546031e+00
-8.543984e+00
-8.541787e+00
-8.539451e+00
-8.536982e+00
-8.534381e+00
-8.531658e+00
-8.528819e+00
-8.525863e+00
-8.522801e+00
-8.519638e+00
-8.516372e+00
-8.513013e+00
-8.509566e+00
-8.506029e+00
-8.502411e+00
-8.498716e+00
-8.494943e+00
-8.491098e+00
-8.487188e+00
-8.483209e+00
-8.479168e+00
-8.475069e+00
-8.470911e+00
-8.466701e+00
-8.462436e+00
-8.458122e+00
-8.453765e+00
-8.449357e+00
-8.444908e+00
-8.440421e+00
-8.435891e+00
-8.431325e+00
-8.426725e+00
-8.422090e+00
-8.417426e+00
-8.412726e+00
-8.407999e+00
-8.403247e+00
-8.398465e+00
-8.393658e+00
-8.388830e+00
-8.383977e+00
-8.379104e+00
-8.374209e+00
-8.369295e+00
-8.364366e+00
-8.359414e+00
-8.354446e+00
-8.349466e+00
-8.344468e+00
-8.339456e+00
-8.334433e+00
-8.329395e+00
-8.324348e+00
-8.319286e+00
-8.314214e+00
-8.309135e+00
-8.304042e+00
-8.298942e+00
-8.293835e+00
-8.288717e+00
-8.283595e+00
-8.278463e+00
-8.273324e+00
-8.268183e+00
-8.263031e+00
-8.257875e+00
-8.252717e+00
-8.247550e+00
-8.242380e+00
-8.237207e+00
-8.232029e+00
-8.226850e+00
-8.221664e+00
-8.216475e+00
-8.211287e+00
-8.206092e+00
-8.200895e+00
-8.195699e+00
-8.190498e+00
-8.185298e+00
-8.180093e+00
-8.174887e+00
-8.169684e+00
-8.164474e+00
-8.159265e+00
-8.154057e+00
-8.148846e+00
-8.143636e+00
-8.138424e+00
-8.133211e+00
-8.128001e+00
-8.122786e+00
-8.117573e+00
-8.112362e+00
-8.107147e+00
-8.101934e+00
-8.096722e+00
-8.091509e+00
-8.086299e+00
-8.081085e+00
-8.075872e+00
-8.070663e+00
-8.065450e+00
-8.060239e+00
-8.055031e+00
-8.049820e+00
-8.044614e+00
-8.039404e+00
-8.034196e+00
-8.028992e+00
-8.023783e+00
-8.018577e+00
-8.013374e+00
-8.008169e+00
-8.002967e+00
-7.997764e+00
-7.992562e+00
-7.987364e+00
-7.982162e+00
-7.976962e+00
-7.971766e+00
-7.966567e+00
-7.961370e+00
-7.956176e+00
-7.950980e+00
-7.945789e+00
-7.940594e+00
-7.935401e+00
-7.930212e+00
-7.925019e+00
-7.919829e+00
-7.914641e+00
-7.909453e+00
-7.904267e+00
-7.899080e+00
-7.893893e+00
-7.888711e+00
-7.883525e+00
-7.878341e+00
-7.873161e+00
-7.867978e+00
-7.862799e+00
-7.857618e+00
-7.852438e+00
-7.847263e+00
-7.842083e+00
-7.836905e+00
-7.831731e+00
-7.826554e+00
-7.821378e+00
-7.816205e+00
-7.811031e+00
-7.805861e+00
-7.800687e+00
-7.795515e+00
-7.790346e+00
-7.785174e+00
-7.780004e+00
-7.774837e+00
-7.769667e+00
-7.764501e+00
-7.759333e+00
-7.754166e+00
-7.749002e+00
-7.743835e+00
-7.738669e+00
-7.733506e+00
-7.728341e+00
-7.723179e+00
-7.718015e+00
-7.712852e+00
-7.707693e+00
-7.702529e+00
-7.697367e+00
-7.692208e+00
-7.687046e+00
-7.681885e+00
-7.676727e+00
-7.671567e+00
-7.666411e+00
-7.661250e+00
-7.656091e+00
-7.650936e+00
-7.645777e+00
-7.640619e+00
-7.635463e+00
-7.630306e+00
-7.625151e+00
-7.619994e+00
-7.614838e+00
-7.609685e+00
-7.604528e+00
-7.599372e+00
-7.594219e+00
-7.589063e+00
-7.583909e+00
-7.578755e+00
-7.573600e+00
-7.568449e+00
-7.563293e+00
-7.558139e+00
-7.552988e+00
-7.547833e+00
-7.542679e+00
-7.537527e+00
-7.532374e+00
-7.527223e+00
-7.522069e+00
-7.516916e+00
-7.511766e+00
-7.506612e+00
-7.501459e+00
-7.496308e+00
-7.491155e+00
-7.486004e+00
-7.480851e+00
-7.475699e+00
-7.470550e+00
-7.465396e+00
-7.460243e+00
-7.455093e+00
-7.449940e+00
-7.444788e+00
-7.439637e+00
-7.434484e+00
-7.429335e+00
-7.424181e+00
-7.419028e+00
-7.413879e+00
-7.408725e+00
-7.403572e+00
-7.398422e+00
-7.393269e+00
-7.388119e+00
-7.382965e+00
-7.377812e+00
-7.372663e+00
-7.367509e+00
-7.362355e+00
-7.357205e+00
-7.352051e+00
-7.346900e+00
-7.341747e+00
-7.336593e+00
-7.331443e+00
-7.326289e+00
-7.321135e+00
-7.315984e+00
-7.310830e+00
-7.305677e+00
-7.300524e+00
-7.295370e+00
-7.290219e+00
-7.285064e+00
-7.279910e+00
-7.274759e+00
-7.269604e+00
-7.264449e+00
-7.259297e+00
-7.254143e+00
-7.248991e+00
-7.243836e+00
-7.238681e+00
-7.233530e+00
-7.228374e+00
-7.223219e+00
-7.218067e+00
-7.212912e+00
-7.207759e+00
-7.202604e+00
-7.197450e+00
-7.192298e+00
-7.187142e+00
-7.181987e+00
-7.176835e+00
-7.171680e+00
-7.166526e+00
-7.161373e+00
-7.156218e+00
-7.151067e+00
-7.145911e+00
-7.140757e+00
-7.135606e+00
-7.130451e+00
-7.125297e+00
-7.120145e+00
-7.114991e+00
-7.109840e+00
-7.104686e+00
-7.099533e+00
-7.094383e+00
-7.089229e+00
-7.084077e+00
-7.078927e+00
-7.073775e+00
-7.068625e+00
-7.063473e+00
-7.058322e+00
-7.053174e+00
-7.048023e+00
-7.042873e+00
-7.037726e+00
-7.032576e+00
-7.027427e+00
-7.022280e+00
-7.017133e+00
-7.011988e+00
-7.006840e+00
-7.001694e+00
-6.996551e+00
-6.991406e+00
-6.986261e+00
-6.981119e+00
-6.975976e+00
-6.970836e+00
-6.965694e+00
-6.960554e+00
-6.955417e+00
-6.950277e+00
-6.945139e+00
-6.940004e+00
-6.934868e+00
-6.929735e+00
-6.924601e+00
-6.919468e+00
-6.914340e+00
-6.909208e+00
-6.904079e+00
-6.898954e+00
-6.893827e+00
-6.888702e+00
-6.883580e+00
-6.878459e+00
-6.873341e+00
-6.868221e+00
-6.863105e+00
-6.857992e+00
-6.852878e+00
-6.847766e+00
-6.842659e+00
-6.837552e+00
-6.832449e+00
-6.827345e+00
-6.822245e+00
-6.817150e+00
-6.812053e+00
-6.806959e+00
-6.801870e+00
-6.796782e+00
-6.791699e+00
-6.786616e+00
-6.781537e+00
-6.776464e+00
-6.771389e+00
-6.766320e+00
-6.761256e+00
-6.756193e+00
-6.751133e+00
-6.746079e+00
-6.741028e+00
-6.735983e+00
-6.730939e+00
-6.725900e+00
-6.720868e+00
-6.715837e+00
-6.710811e+00
-6.705792e+00
-6.700777e+00
-6.695768e+00
-6.690762e+00
-6.685763e+00
-6.680772e+00
-6.675782e+00
-6.670800e+00
-6.665826e+00
-6.660856e+00
-6.655894e+00
-6.650937e+00
-6.645988e+00
-6.641049e+00
-6.636113e+00
-6.631185e+00
-6.626268e+00
-6.621356e+00
-6.616453e+00
-6.611560e+00
-6.606674e+00
-6.601799e+00
-6.596931e+00
-6.592074e+00
-6.587229e+00
-6.582390e+00
-6.577562e+00
-6.572747e+00
-6.567942e+00
-6.563149e+00
-6.558366e+00
-6.553595e+00
-6.548840e+00
-6.544093e+00
-6.539360e+00
-6.534644e+00
-6.529938e+00
-6.525248e+00
-6.520571e+00
-6.515910e+00
-6.511267e+00
-6.506635e+00
-6.502021e+00
-6.497426e+00
-6.492845e+00
-6.488282e+00
-6.483739e+00
-6.479214e+00
-6.474709e+00
-6.470221e+00
-6.465754e+00
-6.461311e+00
-6.456885e+00
-6.452481e+00
-6.448102e+00
-6.443745e+00
-6.439412e+00
-6.435101e+00
-6.430817e+00
-6.426559e+00
-6.422325e+00
-6.418118e+00
-6.413941e+00
-6.409790e+00
-6.405669e+00
-6.401577e+00
-6.397516e+00
-6.393488e+00
-6.389489e+00
-6.385524e+00
-6.381595e+00
-6.377697e+00
-6.373835e+00
-6.370012e+00
-6.366224e+00
-6.362476e+00
-6.358765e+00
-6.355095e+00
-6.351468e+00
-6.347880e+00
-6.344335e+00
-6.340837e+00
-6.337383e+00
-6.333976e+00
-6.330614e+00
-6.327303e+00
-6.324042e+00
-6.320830e+00
-6.317670e+00
-6.314567e+00
-6.311515e+00
-6.308520e+00
-6.305583e+00
-6.302704e+00
-6.299887e+00
-6.297128e+00
-6.294433e+00
-6.291806e+00
-6.289241e+00
-6.286743e+00
-6.284318e+00
-6.281962e+00
-6.279680e+00
-6.277469e+00
-6.275337e+00
-6.273286e+00
-6.271310e+00
-6.269419e+00
-6.267615e+00
-6.265896e+00
-6.264267e+00
-6.262732e+00
-6.261293e+00
-6.259952e+00
-6.258712e+00
-6.257583e+00
-6.256557e+00
-6.255645e+00
-6.254855e+00
-6.254201e+00
-6.253668e+00
-6.253259e+00
-6.252980e+00
-6.252839e+00
