# vtk DataFile Version 3.0
Monodomain MVF
ASCII
DATASET POLYDATA
POINTS 501 float
0.000000e+00 0.000000e+00 0.000000e+00
1.000000e-02 0.000000e+00 0.000000e+00
2.000000e-02 0.000000e+00 0.000000e+00
3.000000e-02 0.000000e+00 0.000000e+00
4.000000e-02 0.000000e+00 0.000000e+00
5.000000e-02 0.000000e+00 0.000000e+00
6.000000e-02 0.000000e+00 0.000000e+00
7.000000e-02 0.000000e+00 0.000000e+00
8.000000e-02 0.000000e+00 0.000000e+00
9.000000e-02 0.000000e+00 0.000000e+00
1.000000e-01 0.000000e+00 0.000000e+00
1.100000e-01 0.000000e+00 0.000000e+00
1.200000e-01 0.000000e+00 0.000000e+00
1.300000e-01 0.000000e+00 0.000000e+00
1.400000e-01 0.000000e+00 0.000000e+00
1.500000e-01 0.000000e+00 0.000000e+00
1.600000e-01 0.000000e+00 0.000000e+00
1.700000e-01 0.000000e+00 0.000000e+00
1.800000e-01 0.000000e+00 0.000000e+00
1.900000e-01 0.000000e+00 0.000000e+00
2.000000e-01 0.000000e+00 0.000000e+00
2.100000e-01 0.000000e+00 0.000000e+00
2.200000e-01 0.000000e+00 0.000000e+00
2.300000e-01 0.000000e+00 0.000000e+00
2.400000e-01 0.000000e+00 0.000000e+00
2.500000e-01 0.000000e+00 0.000000e+00
2.600000e-01 0.000000e+00 0.000000e+00
2.700000e-01 0.000000e+00 0.000000e+00
2.800000e-01 0.000000e+00 0.000000e+00
2.900000e-01 0.000000e+00 0.000000e+00
3.000000e-01 0.000000e+00 0.000000e+00
3.100000e-01 0.000000e+00 0.000000e+00
3.200000e-01 0.000000e+00 0.000000e+00
3.300000e-01 0.000000e+00 0.000000e+00
3.400000e-01 0.000000e+00 0.000000e+00
3.500000e-01 0.000000e+00 0.000000e+00
3.600000e-01 0.000000e+00 0.000000e+00
3.700000e-01 0.000000e+00 0.000000e+00
3.800000e-01 0.000000e+00 0.000000e+00
3.900000e-01 0.000000e+00 0.000000e+00
4.000000e-01 0.000000e+00 0.000000e+00
4.100000e-01 0.000000e+00 0.000000e+00
4.200000e-01 0.000000e+00 0.000000e+00
4.300000e-01 0.000000e+00 0.000000e+00
4.400000e-01 0.000000e+00 0.000000e+00
4.500000e-01 0.000000e+00 0.000000e+00
4.600000e-01 0.000000e+00 0.000000e+00
4.700000e-01 0.000000e+00 0.000000e+00
4.800000e-01 0.000000e+00 0.000000e+00
4.900000e-01 0.000000e+00 0.000000e+00
5.000000e-01 0.000000e+00 0.000000e+00
5.100000e-01 0.000000e+00 0.000000e+00
5.200000e-01 0.000000e+00 0.000000e+00
5.300000e-01 0.000000e+00 0.000000e+00
5.400000e-01 0.000000e+00 0.000000e+00
5.500000e-01 0.000000e+00 0.000000e+00
5.600000e-01 0.000000e+00 0.000000e+00
5.700000e-01 0.000000e+00 0.000000e+00
5.800000e-01 0.000000e+00 0.000000e+00
5.900000e-01 0.000000e+00 0.000000e+00
6.000000e-01 0.000000e+00 0.000000e+00
6.100000e-01 0.000000e+00 0.000000e+00
6.200000e-01 0.000000e+00 0.000000e+00
6.300000e-01 0.000000e+00 0.000000e+00
6.400000e-01 0.000000e+00 0.000000e+00
6.500000e-01 0.000000e+00 0.000000e+00
6.600000e-01 0.000000e+00 0.000000e+00
6.700000e-01 0.000000e+00 0.000000e+00
6.800000e-01 0.000000e+00 0.000000e+00
6.900000e-01 0.000000e+00 0.000000e+00
7.000000e-01 0.000000e+00 0.000000e+00
7.100000e-01 0.000000e+00 0.000000e+00
7.200000e-01 0.000000e+00 0.000000e+00
7.300000e-01 0.000000e+00 0.000000e+00
7.400000e-01 0.000000e+00 0.000000e+00
7.500000e-01 0.000000e+00 0.000000e+00
7.600000e-01 0.000000e+00 0.000000e+00
7.700000e-01 0.000000e+00 0.000000e+00
7.800000e-01 0.000000e+00 0.000000e+00
7.900000e-01 0.000000e+00 0.000000e+00
8.000000e-01 0.000000e+00 0.000000e+00
8.100000e-01 0.000000e+00 0.000000e+00
8.200000e-01 0.000000e+00 0.000000e+00
8.300000e-01 0.000000e+00 0.000000e+00
8.400000e-01 0.000000e+00 0.000000e+00
8.500000e-01 0.000000e+00 0.000000e+00
8.600000e-01 0.000000e+00 0.000000e+00
8.700000e-01 0.000000e+00 0.000000e+00
8.800000e-01 0.000000e+00 0.000000e+00
8.900000e-01 0.000000e+00 0.000000e+00
9.000000e-01 0.000000e+00 0.000000e+00
9.100000e-01 0.000000e+00 0.000000e+00
9.200000e-01 0.000000e+00 0.000000e+00
9.300000e-01 0.000000e+00 0.000000e+00
9.400000e-01 0.000000e+00 0.000000e+00
9.500000e-01 0.000000e+00 0.000000e+00
9.600000e-01 0.000000e+00 0.000000e+00
9.700000e-01 0.000000e+00 0.000000e+00
9.800000e-01 0.000000e+00 0.000000e+00
9.900000e-01 0.000000e+00 0.000000e+00
1.000000e+00 0.000000e+00 0.000000e+00
1.010000e+00 0.000000e+00 0.000000e+00
1.020000e+00 0.000000e+00 0.000000e+00
1.030000e+00 0.000000e+00 0.000000e+00
1.040000e+00 0.000000e+00 0.000000e+00
1.050000e+00 0.000000e+00 0.000000e+00
1.060000e+00 0.000000e+00 0.000000e+00
1.070000e+00 0.000000e+00 0.000000e+00
1.080000e+00 0.000000e+00 0.000000e+00
1.090000e+00 0.000000e+00 0.000000e+00
1.100000e+00 0.000000e+00 0.000000e+00
1.110000e+00 0.000000e+00 0.000000e+00
1.120000e+00 0.000000e+00 0.000000e+00
1.130000e+00 0.000000e+00 0.000000e+00
1.140000e+00 0.000000e+00 0.000000e+00
1.150000e+00 0.000000e+00 0.000000e+00
1.160000e+00 0.000000e+00 0.000000e+00
1.170000e+00 0.000000e+00 0.000000e+00
1.180000e+00 0.000000e+00 0.000000e+00
1.190000e+00 0.000000e+00 0.000000e+00
1.200000e+00 0.000000e+00 0.000000e+00
1.210000e+00 0.000000e+00 0.000000e+00
1.220000e+00 0.000000e+00 0.000000e+00
1.230000e+00 0.000000e+00 0.000000e+00
1.240000e+00 0.000000e+00 0.000000e+00
1.250000e+00 0.000000e+00 0.000000e+00
1.260000e+00 0.000000e+00 0.000000e+00
1.270000e+00 0.000000e+00 0.000000e+00
1.280000e+00 0.000000e+00 0.000000e+00
1.290000e+00 0.000000e+00 0.000000e+00
1.300000e+00 0.000000e+00 0.000000e+00
1.310000e+00 0.000000e+00 0.000000e+00
1.320000e+00 0.000000e+00 0.000000e+00
1.330000e+00 0.000000e+00 0.000000e+00
1.340000e+00 0.000000e+00 0.000000e+00
1.350000e+00 0.000000e+00 0.000000e+00
1.360000e+00 0.000000e+00 0.000000e+00
1.370000e+00 0.000000e+00 0.000000e+00
1.380000e+00 0.000000e+00 0.000000e+00
1.390000e+00 0.000000e+00 0.000000e+00
1.400000e+00 0.000000e+00 0.000000e+00
1.410000e+00 0.000000e+00 0.000000e+00
1.420000e+00 0.000000e+00 0.000000e+00
1.430000e+00 0.000000e+00 0.000000e+00
1.440000e+00 0.000000e+00 0.000000e+00
1.450000e+00 0.000000e+00 0.000000e+00
1.460000e+00 0.000000e+00 0.000000e+00
1.470000e+00 0.000000e+00 0.000000e+00
1.480000e+00 0.000000e+00 0.000000e+00
1.490000e+00 0.000000e+00 0.000000e+00
1.500000e+00 0.000000e+00 0.000000e+00
1.510000e+00 0.000000e+00 0.000000e+00
1.520000e+00 0.000000e+00 0.000000e+00
1.530000e+00 0.000000e+00 0.000000e+00
1.540000e+00 0.000000e+00 0.000000e+00
1.550000e+00 0.000000e+00 0.000000e+00
1.560000e+00 0.000000e+00 0.000000e+00
1.570000e+00 0.000000e+00 0.000000e+00
1.580000e+00 0.000000e+00 0.000000e+00
1.590000e+00 0.000000e+00 0.000000e+00
1.600000e+00 0.000000e+00 0.000000e+00
1.610000e+00 0.000000e+00 0.000000e+00
1.620000e+00 0.000000e+00 0.000000e+00
1.630000e+00 0.000000e+00 0.000000e+00
1.640000e+00 0.000000e+00 0.000000e+00
1.650000e+00 0.000000e+00 0.000000e+00
1.660000e+00 0.000000e+00 0.000000e+00
1.670000e+00 0.000000e+00 0.000000e+00
1.680000e+00 0.000000e+00 0.000000e+00
1.690000e+00 0.000000e+00 0.000000e+00
1.700000e+00 0.000000e+00 0.000000e+00
1.710000e+00 0.000000e+00 0.000000e+00
1.720000e+00 0.000000e+00 0.000000e+00
1.730000e+00 0.000000e+00 0.000000e+00
1.740000e+00 0.000000e+00 0.000000e+00
1.750000e+00 0.000000e+00 0.000000e+00
1.760000e+00 0.000000e+00 0.000000e+00
1.770000e+00 0.000000e+00 0.000000e+00
1.780000e+00 0.000000e+00 0.000000e+00
1.790000e+00 0.000000e+00 0.000000e+00
1.800000e+00 0.000000e+00 0.000000e+00
1.810000e+00 0.000000e+00 0.000000e+00
1.820000e+00 0.000000e+00 0.000000e+00
1.830000e+00 0.000000e+00 0.000000e+00
1.840000e+00 0.000000e+00 0.000000e+00
1.850000e+00 0.000000e+00 0.000000e+00
1.860000e+00 0.000000e+00 0.000000e+00
1.870000e+00 0.000000e+00 0.000000e+00
1.880000e+00 0.000000e+00 0.000000e+00
1.890000e+00 0.000000e+00 0.000000e+00
1.900000e+00 0.000000e+00 0.000000e+00
1.910000e+00 0.000000e+00 0.000000e+00
1.920000e+00 0.000000e+00 0.000000e+00
1.930000e+00 0.000000e+00 0.000000e+00
1.940000e+00 0.000000e+00 0.000000e+00
1.950000e+00 0.000000e+00 0.000000e+00
1.960000e+00 0.000000e+00 0.000000e+00
1.970000e+00 0.000000e+00 0.000000e+00
1.980000e+00 0.000000e+00 0.000000e+00
1.990000e+00 0.000000e+00 0.000000e+00
2.000000e+00 0.000000e+00 0.000000e+00
2.010000e+00 0.000000e+00 0.000000e+00
2.020000e+00 0.000000e+00 0.000000e+00
2.030000e+00 0.000000e+00 0.000000e+00
2.040000e+00 0.000000e+00 0.000000e+00
2.050000e+00 0.000000e+00 0.000000e+00
2.060000e+00 0.000000e+00 0.000000e+00
2.070000e+00 0.000000e+00 0.000000e+00
2.080000e+00 0.000000e+00 0.000000e+00
2.090000e+00 0.000000e+00 0.000000e+00
2.100000e+00 0.000000e+00 0.000000e+00
2.110000e+00 0.000000e+00 0.000000e+00
2.120000e+00 0.000000e+00 0.000000e+00
2.130000e+00 0.000000e+00 0.000000e+00
2.140000e+00 0.000000e+00 0.000000e+00
2.150000e+00 0.000000e+00 0.000000e+00
2.160000e+00 0.000000e+00 0.000000e+00
2.170000e+00 0.000000e+00 0.000000e+00
2.180000e+00 0.000000e+00 0.000000e+00
2.190000e+00 0.000000e+00 0.000000e+00
2.200000e+00 0.000000e+00 0.000000e+00
2.210000e+00 0.000000e+00 0.000000e+00
2.220000e+00 0.000000e+00 0.000000e+00
2.230000e+00 0.000000e+00 0.000000e+00
2.240000e+00 0.000000e+00 0.000000e+00
2.250000e+00 0.000000e+00 0.000000e+00
2.260000e+00 0.000000e+00 0.000000e+00
2.270000e+00 0.000000e+00 0.000000e+00
2.280000e+00 0.000000e+00 0.000000e+00
2.290000e+00 0.000000e+00 0.000000e+00
2.300000e+00 0.000000e+00 0.000000e+00
2.310000e+00 0.000000e+00 0.000000e+00
2.320000e+00 0.000000e+00 0.000000e+00
2.330000e+00 0.000000e+00 0.000000e+00
2.340000e+00 0.000000e+00 0.000000e+00
2.350000e+00 0.000000e+00 0.000000e+00
2.360000e+00 0.000000e+00 0.000000e+00
2.370000e+00 0.000000e+00 0.000000e+00
2.380000e+00 0.000000e+00 0.000000e+00
2.390000e+00 0.000000e+00 0.000000e+00
2.400000e+00 0.000000e+00 0.000000e+00
2.410000e+00 0.000000e+00 0.000000e+00
2.420000e+00 0.000000e+00 0.000000e+00
2.430000e+00 0.000000e+00 0.000000e+00
2.440000e+00 0.000000e+00 0.000000e+00
2.450000e+00 0.000000e+00 0.000000e+00
2.460000e+00 0.000000e+00 0.000000e+00
2.470000e+00 0.000000e+00 0.000000e+00
2.480000e+00 0.000000e+00 0.000000e+00
2.490000e+00 0.000000e+00 0.000000e+00
2.500000e+00 0.000000e+00 0.000000e+00
2.510000e+00 0.000000e+00 0.000000e+00
2.520000e+00 0.000000e+00 0.000000e+00
2.530000e+00 0.000000e+00 0.000000e+00
[...]
POINT_DATA 501
SCALARS vm float 1
LOOKUP_TABLE default
-2.316182e+01
-2.316163e+01
-2.316125e+01
-2.316068e+01
-2.315994e+01
-2.315900e+01
-2.315793e+01
-2.315670e+01
-2.315533e+01
-2.315382e+01
-2.315216e+01
-2.315037e+01
-2.314846e+01
-2.314642e+01
-2.314425e+01
-2.314196e+01
-2.313957e+01
-2.313705e+01
-2.313443e+01
-2.313171e+01
-2.312888e+01
-2.312596e+01
-2.312294e+01
-2.311982e+01
-2.311662e+01
-2.311333e+01
-2.310995e+01
-2.310649e+01
-2.310295e+01
-2.309933e+01
-2.309564e+01
-2.309187e+01
-2.308804e+01
-2.308413e+01
-2.308016e+01
-2.307612e+01
-2.307202e+01
-2.306786e+01
-2.306364e+01
-2.305936e+01
-2.305502e+01
-2.305063e+01
-2.304619e+01
-2.304170e+01
-2.303715e+01
-2.303256e+01
-2.302792e+01
-2.302323e+01
-2.301850e+01
-2.301372e+01
-2.300890e+01
-2.300404e+01
-2.299914e+01
-2.299420e+01
-2.298923e+01
-2.298421e+01
-2.297916e+01
-2.297408e+01
-2.296896e+01
-2.296381e+01
-2.295862e+01
-2.295341e+01
-2.294816e+01
-2.294289e+01
-2.293758e+01
-2.293225e+01
-2.292689e+01
-2.292150e+01
-2.291609e+01
-2.291065e+01
-2.290519e+01
-2.289970e+01
-2.289419e+01
-2.288866e+01
-2.288310e+01
-2.287753e+01
-2.287193e+01
-2.286631e+01
-2.286067e+01
-2.285501e+01
-2.284934e+01
-2.284364e+01
-2.283793e+01
-2.283220e+01
-2.282645e+01
-2.282069e+01
-2.281491e+01
-2.280911e+01
-2.280330e+01
-2.279748e+01
-2.279164e+01
-2.278578e+01
-2.277991e+01
-2.277403e+01
-2.276814e+01
-2.276223e+01
-2.275631e+01
-2.275038e+01
-2.274444e+01
-2.273848e+01
-2.273251e+01
-2.272654e+01
-2.272055e+01
-2.271455e+01
-2.270855e+01
-2.270253e+01
-2.269650e+01
-2.269047e+01
-2.268442e+01
-2.267837e+01
-2.267231e+01
-2.266624e+01
-2.266016e+01
-2.265408e+01
-2.264799e+01
-2.264189e+01
-2.263578e+01
-2.262967e+01
-2.262355e+01
-2.261742e+01
-2.261129e+01
-2.260515e+01
-2.259900e+01
-2.259285e+01
-2.258670e+01
-2.258054e+01
-2.257437e+01
-2.256820e+01
-2.256202e+01
-2.255584e+01
-2.254965e+01
-2.254346e+01
-2.253727e+01
-2.253107e+01
-2.252487e+01
-2.251866e+01
-2.251245e+01
-2.250624e+01
-2.250002e+01
-2.249380e+01
-2.248757e+01
-2.248135e+01
-2.247512e+01
-2.246888e+01
-2.246265e+01
-2.245641e+01
-2.245017e+01
-2.244393e+01
-2.243768e+01
-2.243144e+01
-2.242519e+01
-2.241893e+01
-2.241268e+01
-2.240643e+01
-2.240017e+01
-2.239391e+01
-2.238765e+01
-2.238139e+01
-2.237513e+01
-2.236886e+01
-2.236259e+01
-2.235633e+01
-2.235006e+01
-2.234379e+01
-2.233752e+01
-2.233125e+01
-2.232498e+01
-2.231871e+01
-2.231244e+01
-2.230616e+01
-2.229989e+01
-2.229362e+01
-2.228734e+01
-2.228107e+01
-2.227479e+01
-2.226852e+01
-2.226224e+01
-2.225597e+01
-2.224969e+01
-2.224342e+01
-2.223714e+01
-2.223087e+01
-2.222460e+01
-2.221832e+01
-2.221205e+01
-2.220577e+01
-2.219950e+01
-2.219323e+01
-2.218695e+01
-2.218068e+01
-2.217441e+01
-2.216814e+01
-2.216187e+01
-2.215560e+01
-2.214933e+01
-2.214307e+01
-2.213680e+01
-2.213053e+01
-2.212427e+01
-2.211800e+01
-2.211174e+01
-2.210548e+01
-2.209922e+01
-2.209296e+01
-2.208670e+01
-2.208044e+01
-2.207419e+01
-2.206793e+01
-2.206168e+01
-2.205543e+01
-2.204918e+01
-2.204293e+01
-2.203668e+01
-2.203043e+01
-2.202419e+01
-2.201795e+01
-2.201170e+01
-2.200546e+01
-2.199922e+01
-2.199299e+01
-2.198675e+01
-2.198052e+01
-2.197428e+01
-2.196805e+01
-2.196183e+01
-2.195560e+01
-2.194937e+01
-2.194315e+01
-2.193693e+01
-2.193071e+01
-2.192449e+01
-2.191828e+01
-2.191206e+01
-2.190585e+01
-2.189964e+01
-2.189344e+01
-2.188723e+01
-2.188103e+01
-2.187483e+01
-2.186863e+01
-2.186243e+01
-2.185624e+01
-2.185005e+01
-2.184386e+01
-2.183767e+01
-2.183148e+01
-2.182530e+01
-2.181912e+01
-2.181294e+01
-2.180677e+01
-2.180059e+01
-2.179442e+01
-2.178826e+01
-2.178209e+01
-2.177593e+01
-2.176977e+01
-2.176361e+01
-2.175745e+01
-2.175130e+01
-2.174515e+01
-2.173901e+01
-2.173286e+01
-2.172672e+01
-2.172059e+01
-2.171445e+01
-2.170832e+01
-2.170219e+01
-2.169606e+01
-2.168994e+01
-2.168382e+01
-2.167770e+01
-2.167159e+01
-2.166547e+01
-2.165937e+01
-2.165326e+01
-2.164716e+01
-2.164106e+01
-2.163497e+01
-2.162888e+01
-2.162279e+01
-2.161670e+01
-2.161062e+01
-2.160455e+01
-2.159847e+01
-2.159240e+01
-2.158633e+01
-2.158027e+01
-2.157421e+01
-2.156816e+01
-2.156210e+01
-2.155606e+01
-2.155001e+01
-2.154397e+01
-2.153794e+01
-2.153190e+01
-2.152588e+01
-2.151985e+01
-2.151383e+01
-2.150782e+01
-2.150181e+01
-2.149580e+01
-2.148980e+01
-2.148380e+01
-2.147781e+01
-2.147182e+01
-2.146583e+01
-2.145986e+01
-2.145388e+01
-2.144791e+01
-2.144195e+01
-2.143599e+01
-2.143003e+01
-2.142408e+01
-2.141814e+01
-2.141220e+01
-2.140626e+01
-2.140033e+01
-2.139441e+01
-2.138849e+01
-2.138258e+01
-2.137667e+01
-2.137077e+01
-2.136488e+01
-2.135899e+01
-2.135310e+01
-2.134723e+01
-2.134135e+01
-2.133549e+01
-2.132963e+01
-2.132378e+01
-2.131793e+01
-2.131209e+01
-2.130626e+01
-2.130043e+01
-2.129461e+01
-2.128880e+01
-2.128300e+01
-2.127720e+01
-2.127141e+01
-2.126563e+01
-2.125985e+01
-2.125408e+01
-2.124832e+01
-2.124257e+01
-2.123682e+01
-2.123109e+01
-2.122536e+01
-2.121964e+01
-2.121393e+01
-2.120822e+01
-2.120253e+01
-2.119684e+01
-2.119117e+01
-2.118550e+01
-2.117984e+01
-2.117419e+01
-2.116855e+01
-2.116292e+01
-2.115730e+01
-2.115169e+01
-2.114610e+01
-2.114051e+01
-2.113493e+01
-2.112936e+01
-2.112380e+01
-2.111826e+01
-2.111272e+01
-2.110720e+01
-2.110168e+01
-2.109618e+01
-2.109070e+01
-2.108522e+01
-2.107976e+01
-2.107431e+01
-2.106887e+01
-2.106344e+01
-2.105803e+01
-2.105263e+01
-2.104724e+01
-2.104187e+01
-2.103651e+01
-2.103117e+01
-2.102584e+01
-2.102053e+01
-2.101523e+01
-2.100995e+01
-2.100468e+01
-2.099943e+01
-2.099419e+01
-2.098897e+01
-2.098377e+01
-2.097858e+01
-2.097341e+01
-2.096826e+01
-2.096312e+01
-2.095801e+01
-2.095291e+01
-2.094783e+01
-2.094277e+01
-2.093773e+01
-2.093270e+01
-2.092770e+01
-2.092272e+01
-2.091776e+01
-2.091282e+01
-2.090790e+01
-2.090301e+01
-2.089813e+01
-2.089328e+01
-2.088845e+01
-2.088364e+01
-2.087886e+01
-2.087410e+01
-2.086936e+01
-2.086465e+01
-2.085996e+01
-2.085531e+01
-2.085067e+01
-2.084606e+01
-2.084148e+01
-2.083693e+01
-2.083240e+01
-2.082791e+01
-2.082344e+01
-2.081900e+01
-2.081459e+01
-2.081021e+01
-2.080586e+01
-2.080155e+01
-2.079726e+01
-2.079300e+01
-2.078878e+01
-2.078460e+01
-2.078044e+01
-2.077632e+01
-2.077224e+01
-2.076819e+01
-2.076418e+01
-2.076020e+01
-2.075626e+01
-2.075236e+01
-2.074850e+01
-2.074467e+01
-2.074089e+01
-2.073715e+01
-2.073344e+01
-2.072978e+01
-2.072617e+01
-2.072259e+01
-2.071906e+01
-2.071557e+01
-2.071213e+01
-2.070874e+01
-2.070538e+01
-2.070208e+01
-2.069883e+01
-2.069562e+01
-2.069247e+01
-2.068936e+01
-2.068631e+01
-2.068330e+01
-2.068035e+01
-2.067745e+01
-2.067461e+01
-2.067182e+01
-2.066909e+01
-2.066641e+01
-2.066380e+01
-2.066124e+01
-2.065873e+01
-2.065629e+01
-2.065391e+01
-2.065159e+01
-2.064934e+01
-2.064714e+01
-2.064501e+01
-2.064295e+01
-2.064095e+01
-2.063902e+01
-2.063716e+01
-2.063537e+01
-2.063365e+01
-2.063200e+01
-2.063042e+01
-2.062891e+01
-2.062748e+01
-2.062613e+01
-2.062485e+01
-2.062365e+01
-2.062254e+01
-2.062150e+01
-2.062055e+01
-2.061968e+01
-2.061890e+01
-2.061821e+01
-2.061761e+01
-2.061711e+01
-2.061672e+01
-2.061641e+01
-2.061621e+01
-2.061610e+01
