# vtk DataFile Version 3.0
Monodomain MVF
ASCII
DATASET POLYDATA
POINTS 501 float
0.000000e+00 0.000000e+00 0.000000e+00
1.000000e-02 0.000000e+00 0.000000e+00
2.000000e-02 0.000000e+00 0.000000e+00
3.000000e-02 0.000000e+00 0.000000e+00
4.000000e-02 0.000000e+00 0.000000e+00
5.000000e-02 0.000000e+00 0.000000e+00
6.000000e-02 0.000000e+00 0.000000e+00
7.000000e-02 0.000000e+00 0.000000e+00
8.000000e-02 0.000000e+00 0.000000e+00
9.000000e-02 0.000000e+00 0.000000e+00
1.000000e-01 0.000000e+00 0.000000e+00
1.100000e-01 0.000000e+00 0.000000e+00
1.200000e-01 0.000000e+00 0.000000e+00
1.300000e-01 0.000000e+00 0.000000e+00
1.400000e-01 0.000000e+00 0.000000e+00
1.500000e-01 0.000000e+00 0.000000e+00
1.600000e-01 0.000000e+00 0.000000e+00
1.700000e-01 0.000000e+00 0.000000e+00
1.800000e-01 0.000000e+00 0.000000e+00
1.900000e-01 0.000000e+00 0.000000e+00
2.000000e-01 0.000000e+00 0.000000e+00
2.100000e-01 0.000000e+00 0.000000e+00
2.200000e-01 0.000000e+00 0.000000e+00
2.300000e-01 0.000000e+00 0.000000e+00
2.400000e-01 0.000000e+00 0.000000e+00
2.500000e-01 0.000000e+00 0.000000e+00
2.600000e-01 0.000000e+00 0.000000e+00
2.700000e-01 0.000000e+00 0.000000e+00
2.800000e-01 0.000000e+00 0.000000e+00
2.900000e-01 0.000000e+00 0.000000e+00
3.000000e-01 0.000000e+00 0.000000e+00
3.100000e-01 0.000000e+00 0.000000e+00
3.200000e-01 0.000000e+00 0.000000e+00
3.300000e-01 0.000000e+00 0.000000e+00
3.400000e-01 0.000000e+00 0.000000e+00
3.500000e-01 0.000000e+00 0.000000e+00
3.600000e-01 0.000000e+00 0.000000e+00
3.700000e-01 0.000000e+00 0.000000e+00
3.800000e-01 0.000000e+00 0.000000e+00
3.900000e-01 0.000000e+00 0.000000e+00
4.000000e-01 0.000000e+00 0.000000e+00
4.100000e-01 0.000000e+00 0.000000e+00
4.200000e-01 0.000000e+00 0.000000e+00
4.300000e-01 0.000000e+00 0.000000e+00
4.400000e-01 0.000000e+00 0.000000e+00
4.500000e-01 0.000000e+00 0.000000e+00
4.600000e-01 0.000000e+00 0.000000e+00
4.700000e-01 0.000000e+00 0.000000e+00
4.800000e-01 0.000000e+00 0.000000e+00
4.900000e-01 0.000000e+00 0.000000e+00
5.000000e-01 0.000000e+00 0.000000e+00
5.100000e-01 0.000000e+00 0.000000e+00
5.200000e-01 0.000000e+00 0.000000e+00
5.300000e-01 0.000000e+00 0.000000e+00
5.400000e-01 0.000000e+00 0.000000e+00
5.500000e-01 0.000000e+00 0.000000e+00
5.600000e-01 0.000000e+00 0.000000e+00
5.700000e-01 0.000000e+00 0.000000e+00
5.800000e-01 0.000000e+00 0.000000e+00
5.900000e-01 0.000000e+00 0.000000e+00
6.000000e-01 0.000000e+00 0.000000e+00
6.100000e-01 0.000000e+00 0.000000e+00
6.200000e-01 0.000000e+00 0.000000e+00
6.300000e-01 0.000000e+00 0.000000e+00
6.400000e-01 0.000000e+00 0.000000e+00
6.500000e-01 0.000000e+00 0.000000e+00
6.600000e-01 0.000000e+00 0.000000e+00
6.700000e-01 0.000000e+00 0.000000e+00
6.800000e-01 0.000000e+00 0.000000e+00
6.900000e-01 0.000000e+00 0.000000e+00
7.000000e-01 0.000000e+00 0.000000e+00
7.100000e-01 0.000000e+00 0.000000e+00
7.200000e-01 0.000000e+00 0.000000e+00
7.300000e-01 0.000000e+00 0.000000e+00
7.400000e-01 0.000000e+00 0.000000e+00
7.500000e-01 0.000000e+00 0.000000e+00
7.600000e-01 0.000000e+00 0.000000e+00
7.700000e-01 0.000000e+00 0.000000e+00
7.800000e-01 0.000000e+00 0.000000e+00
7.900000e-01 0.000000e+00 0.000000e+00
8.000000e-01 0.000000e+00 0.000000e+00
8.100000e-01 0.000000e+00 0.000000e+00
8.200000e-01 0.000000e+00 0.000000e+00
8.300000e-01 0.000000e+00 0.000000e+00
8.400000e-01 0.000000e+00 0.000000e+00
8.500000e-01 0.000000e+00 0.000000e+00
8.600000e-01 0.000000e+00 0.000000e+00
8.700000e-01 0.000000e+00 0.000000e+00
8.800000e-01 0.000000e+00 0.000000e+00
8.900000e-01 0.000000e+00 0.000000e+00
9.000000e-01 0.000000e+00 0.000000e+00
9.100000e-01 0.000000e+00 0.000000e+00
9.200000e-01 0.000000e+00 0.000000e+00
9.300000e-01 0.000000e+00 0.000000e+00
9.400000e-01 0.000000e+00 0.000000e+00
9.500000e-01 0.000000e+00 0.000000e+00
9.600000e-01 0.000000e+00 0.000000e+00
9.700000e-01 0.000000e+00 0.000000e+00
9.800000e-01 0.000000e+00 0.000000e+00
9.900000e-01 0.000000e+00 0.000000e+00
1.000000e+00 0.000000e+00 0.000000e+00
1.010000e+00 0.000000e+00 0.000000e+00
1.020000e+00 0.000000e+00 0.000000e+00
1.030000e+00 0.000000e+00 0.000000e+00
1.040000e+00 0.000000e+00 0.000000e+00
1.050000e+00 0.000000e+00 0.000000e+00
1.060000e+00 0.000000e+00 0.000000e+00
1.070000e+00 0.000000e+00 0.000000e+00
1.080000e+00 0.000000e+00 0.000000e+00
1.090000e+00 0.000000e+00 0.000000e+00
1.100000e+00 0.000000e+00 0.000000e+00
1.110000e+00 0.000000e+00 0.000000e+00
1.120000e+00 0.000000e+00 0.000000e+00
1.130000e+00 0.000000e+00 0.000000e+00
1.140000e+00 0.000000e+00 0.000000e+00
1.150000e+00 0.000000e+00 0.000000e+00
1.160000e+00 0.000000e+00 0.000000e+00
1.170000e+00 0.000000e+00 0.000000e+00
1.180000e+00 0.000000e+00 0.000000e+00
1.190000e+00 0.000000e+00 0.000000e+00
1.200000e+00 0.000000e+00 0.000000e+00
1.210000e+00 0.000000e+00 0.000000e+00
1.220000e+00 0.000000e+00 0.000000e+00
1.230000e+00 0.000000e+00 0.000000e+00
1.240000e+00 0.000000e+00 0.000000e+00
1.250000e+00 0.000000e+00 0.000000e+00
1.260000e+00 0.000000e+00 0.000000e+00
1.270000e+00 0.000000e+00 0.000000e+00
1.280000e+00 0.000000e+00 0.000000e+00
1.290000e+00 0.000000e+00 0.000000e+00
1.300000e+00 0.000000e+00 0.000000e+00
1.310000e+00 0.000000e+00 0.000000e+00
1.320000e+00 0.000000e+00 0.000000e+00
1.330000e+00 0.000000e+00 0.000000e+00
1.340000e+00 0.000000e+00 0.000000e+00
1.350000e+00 0.000000e+00 0.000000e+00
1.360000e+00 0.000000e+00 0.000000e+00
1.370000e+00 0.000000e+00 0.000000e+00
1.380000e+00 0.000000e+00 0.000000e+00
1.390000e+00 0.000000e+00 0.000000e+00
1.400000e+00 0.000000e+00 0.000000e+00
1.410000e+00 0.000000e+00 0.000000e+00
1.420000e+00 0.000000e+00 0.000000e+00
1.430000e+00 0.000000e+00 0.000000e+00
1.440000e+00 0.000000e+00 0.000000e+00
1.450000e+00 0.000000e+00 0.000000e+00
1.460000e+00 0.000000e+00 0.000000e+00
1.470000e+00 0.000000e+00 0.000000e+00
1.480000e+00 0.000000e+00 0.000000e+00
1.490000e+00 0.000000e+00 0.000000e+00
1.500000e+00 0.000000e+00 0.000000e+00
1.510000e+00 0.000000e+00 0.000000e+00
1.520000e+00 0.000000e+00 0.000000e+00
1.530000e+00 0.000000e+00 0.000000e+00
1.540000e+00 0.000000e+00 0.000000e+00
1.550000e+00 0.000000e+00 0.000000e+00
1.560000e+00 0.000000e+00 0.000000e+00
1.570000e+00 0.000000e+00 0.000000e+00
1.580000e+00 0.000000e+00 0.000000e+00
1.590000e+00 0.000000e+00 0.000000e+00
1.600000e+00 0.000000e+00 0.000000e+00
1.610000e+00 0.000000e+00 0.000000e+00
1.620000e+00 0.000000e+00 0.000000e+00
1.630000e+00 0.000000e+00 0.000000e+00
1.640000e+00 0.000000e+00 0.000000e+00
1.650000e+00 0.000000e+00 0.000000e+00
1.660000e+00 0.000000e+00 0.000000e+00
1.670000e+00 0.000000e+00 0.000000e+00
1.680000e+00 0.000000e+00 0.000000e+00
1.690000e+00 0.000000e+00 0.000000e+00
1.700000e+00 0.000000e+00 0.000000e+00
1.710000e+00 0.000000e+00 0.000000e+00
1.720000e+00 0.000000e+00 0.000000e+00
1.730000e+00 0.000000e+00 0.000000e+00
1.740000e+00 0.000000e+00 0.000000e+00
1.750000e+00 0.000000e+00 0.000000e+00
1.760000e+00 0.000000e+00 0.000000e+00
1.770000e+00 0.000000e+00 0.000000e+00
1.780000e+00 0.000000e+00 0.000000e+00
1.790000e+00 0.000000e+00 0.000000e+00
1.800000e+00 0.000000e+00 0.000000e+00
1.810000e+00 0.000000e+00 0.000000e+00
1.820000e+00 0.000000e+00 0.000000e+00
1.830000e+00 0.000000e+00 0.000000e+00
1.840000e+00 0.000000e+00 0.000000e+00
1.850000e+00 0.000000e+00 0.000000e+00
1.860000e+00 0.000000e+00 0.000000e+00
1.870000e+00 0.000000e+00 0.000000e+00
1.880000e+00 0.000000e+00 0.000000e+00
1.890000e+00 0.000000e+00 0.000000e+00
1.900000e+00 0.000000e+00 0.000000e+00
1.910000e+00 0.000000e+00 0.000000e+00
1.920000e+00 0.000000e+00 0.000000e+00
1.930000e+00 0.000000e+00 0.000000e+00
1.940000e+00 0.000000e+00 0.000000e+00
1.950000e+00 0.000000e+00 0.000000e+00
1.960000e+00 0.000000e+00 0.000000e+00
1.970000e+00 0.000000e+00 0.000000e+00
1.980000e+00 0.000000e+00 0.000000e+00
1.990000e+00 0.000000e+00 0.000000e+00
2.000000e+00 0.000000e+00 0.000000e+00
2.010000e+00 0.000000e+00 0.000000e+00
2.020000e+00 0.000000e+00 0.000000e+00
2.030000e+00 0.000000e+00 0.000000e+00
2.040000e+00 0.000000e+00 0.000000e+00
2.050000e+00 0.000000e+00 0.000000e+00
2.060000e+00 0.000000e+00 0.000000e+00
2.070000e+00 0.000000e+00 0.000000e+00
2.080000e+00 0.000000e+00 0.000000e+00
2.090000e+00 0.000000e+00 0.000000e+00
2.100000e+00 0.000000e+00 0.000000e+00
2.110000e+00 0.000000e+00 0.000000e+00
2.120000e+00 0.000000e+00 0.000000e+00
2.130000e+00 0.000000e+00 0.000000e+00
2.140000e+00 0.000000e+00 0.000000e+00
2.150000e+00 0.000000e+00 0.000000e+00
2.160000e+00 0.000000e+00 0.000000e+00
2.170000e+00 0.000000e+00 0.000000e+00
2.180000e+00 0.000000e+00 0.000000e+00
2.190000e+00 0.000000e+00 0.000000e+00
2.200000e+00 0.000000e+00 0.000000e+00
2.210000e+00 0.000000e+00 0.000000e+00
2.220000e+00 0.000000e+00 0.000000e+00
2.230000e+00 0.000000e+00 0.000000e+00
2.240000e+00 0.000000e+00 0.000000e+00
2.250000e+00 0.000000e+00 0.000000e+00
2.260000e+00 0.000000e+00 0.000000e+00
2.270000e+00 0.000000e+00 0.000000e+00
2.280000e+00 0.000000e+00 0.000000e+00
2.290000e+00 0.000000e+00 0.000000e+00
2.300000e+00 0.000000e+00 0.000000e+00
2.310000e+00 0.000000e+00 0.000000e+00
2.320000e+00 0.000000e+00 0.000000e+00
2.330000e+00 0.000000e+00 0.000000e+00
2.340000e+00 0.000000e+00 0.000000e+00
2.350000e+00 0.000000e+00 0.000000e+00
2.360000e+00 0.000000e+00 0.000000e+00
2.370000e+00 0.000000e+00 0.000000e+00
2.380000e+00 0.000000e+00 0.000000e+00
2.390000e+00 0.000000e+00 0.000000e+00
2.400000e+00 0.000000e+00 0.000000e+00
2.410000e+00 0.000000e+00 0.000000e+00
2.420000e+00 0.000000e+00 0.000000e+00
2.430000e+00 0.000000e+00 0.000000e+00
2.440000e+00 0.000000e+00 0.000000e+00
2.450000e+00 0.000000e+00 0.000000e+00
2.460000e+00 0.000000e+00 0.000000e+00
2.470000e+00 0.000000e+00 0.000000e+00
2.480000e+00 0.000000e+00 0.000000e+00
2.490000e+00 0.000000e+00 0.000000e+00
2.500000e+00 0.000000e+00 0.000000e+00
2.510000e+00 0.000000e+00 0.000000e+00
2.520000e+00 0.000000e+00 0.000000e+00
2.530000e+00 0.000000e+00 0.000000e+00
[...]
POINT_DATA 501
SCALARS vm float 1
LOOKUP_TABLE default
5.936465e+00
5.936789e+00
5.937432e+00
5.938389e+00
5.939646e+00
5.941220e+00
5.943011e+00
5.945010e+00
5.947220e+00
5.949636e+00
5.952233e+00
5.955014e+00
5.957969e+00
5.961085e+00
5.964359e+00
5.967785e+00
5.971350e+00
5.975055e+00
5.978892e+00
5.982848e+00
5.986928e+00
5.991123e+00
5.995418e+00
5.999823e+00
6.004328e+00
6.008919e+00
6.013606e+00
6.018379e+00
6.023225e+00
6.028155e+00
6.033159e+00
6.038228e+00
6.043369e+00
6.048568e+00
6.053831e+00
6.059154e+00
6.064524e+00
6.069953e+00
6.075432e+00
6.080950e+00
6.086520e+00
6.092131e+00
6.097778e+00
6.103469e+00
6.109189e+00
6.114949e+00
6.120744e+00
6.126561e+00
6.132415e+00
6.138298e+00
6.144199e+00
6.150132e+00
6.156085e+00
6.162062e+00
6.168062e+00
6.174075e+00
6.180114e+00
6.186171e+00
6.192238e+00
6.198327e+00
6.204431e+00
6.210544e+00
6.216676e+00
6.222815e+00
6.228970e+00
6.235138e+00
6.241308e+00
6.247496e+00
6.253693e+00
6.259892e+00
6.266106e+00
6.272323e+00
6.278549e+00
6.284784e+00
6.291018e+00
6.297265e+00
6.303518e+00
6.309768e+00
6.316030e+00
6.322296e+00
6.328561e+00
6.334835e+00
6.341106e+00
6.347386e+00
6.353671e+00
6.359950e+00
6.366239e+00
6.372530e+00
6.378817e+00
6.385113e+00
6.391404e+00
6.397701e+00
6.404001e+00
6.410295e+00
6.416597e+00
6.422901e+00
6.429199e+00
6.435503e+00
6.441805e+00
6.448109e+00
6.454416e+00
6.460715e+00
6.467023e+00
6.473332e+00
6.479632e+00
6.485940e+00
6.492248e+00
6.498550e+00
6.504859e+00
6.511160e+00
6.517468e+00
6.523776e+00
6.530076e+00
6.536384e+00
6.542691e+00
6.548992e+00
6.555299e+00
6.561600e+00
6.567904e+00
6.574211e+00
6.580509e+00
6.586814e+00
6.593120e+00
6.599417e+00
6.605721e+00
6.612022e+00
6.618322e+00
6.624626e+00
6.630921e+00
6.637224e+00
6.643527e+00
6.649822e+00
6.656123e+00
6.662424e+00
6.668719e+00
6.675020e+00
6.681314e+00
6.687613e+00
6.693913e+00
6.700205e+00
6.706505e+00
6.712804e+00
6.719096e+00
6.725395e+00
6.731688e+00
6.737985e+00
6.744283e+00
6.750573e+00
6.756871e+00
6.763170e+00
6.769460e+00
6.775758e+00
6.782051e+00
6.788346e+00
6.794643e+00
6.800933e+00
6.807230e+00
6.813528e+00
6.819818e+00
6.826115e+00
6.832412e+00
6.838703e+00
6.845001e+00
6.851292e+00
6.857588e+00
6.863887e+00
6.870177e+00
6.876475e+00
6.882773e+00
6.889065e+00
6.895363e+00
6.901657e+00
6.907953e+00
6.914253e+00
6.920544e+00
6.926844e+00
6.933144e+00
6.939437e+00
6.945737e+00
6.952035e+00
6.958333e+00
6.964634e+00
6.970928e+00
6.977230e+00
6.983533e+00
6.989828e+00
6.996131e+00
7.002435e+00
7.008732e+00
7.015037e+00
7.021335e+00
7.027639e+00
7.033946e+00
7.040244e+00
7.046551e+00
7.052858e+00
7.059160e+00
7.065467e+00
7.071772e+00
7.078079e+00
7.084389e+00
7.090692e+00
7.097003e+00
7.103316e+00
7.109621e+00
7.115934e+00
7.122244e+00
7.128555e+00
7.134870e+00
7.141179e+00
7.147495e+00
7.153813e+00
7.160123e+00
7.166441e+00
7.172760e+00
7.179074e+00
7.185395e+00
7.191710e+00
7.198032e+00
7.204355e+00
7.210671e+00
7.216996e+00
7.223322e+00
7.229642e+00
7.235969e+00
7.242293e+00
7.248620e+00
7.254950e+00
7.261273e+00
7.267605e+00
7.273939e+00
7.280265e+00
7.286600e+00
7.292933e+00
7.299266e+00
7.305604e+00
7.311936e+00
7.318275e+00
7.324617e+00
7.330951e+00
7.337294e+00
7.343638e+00
7.349977e+00
7.356323e+00
7.362665e+00
7.369012e+00
7.375362e+00
7.381705e+00
7.388058e+00
7.394411e+00
7.400759e+00
7.407114e+00
7.413468e+00
7.419823e+00
7.426183e+00
7.432536e+00
7.438899e+00
7.445263e+00
7.451620e+00
7.457986e+00
7.464352e+00
7.470716e+00
7.477087e+00
7.483452e+00
7.489824e+00
7.496199e+00
7.502568e+00
7.508945e+00
7.515324e+00
7.521698e+00
7.528079e+00
7.534457e+00
7.540841e+00
7.547228e+00
7.553608e+00
7.559998e+00
7.566389e+00
7.572776e+00
7.579169e+00
7.585562e+00
7.591957e+00
7.598356e+00
7.604750e+00
7.611153e+00
7.617558e+00
7.623957e+00
7.630364e+00
7.636773e+00
7.643179e+00
7.649592e+00
7.656001e+00
7.662417e+00
7.668836e+00
7.675249e+00
7.681670e+00
7.688095e+00
7.694514e+00
7.700941e+00
7.707367e+00
7.713796e+00
7.720230e+00
7.726658e+00
7.733095e+00
7.739535e+00
7.745969e+00
7.752411e+00
7.758853e+00
7.765297e+00
7.771746e+00
7.778190e+00
7.784642e+00
7.791098e+00
7.797547e+00
7.804006e+00
7.810466e+00
7.816923e+00
7.823387e+00
7.829848e+00
7.836316e+00
7.842787e+00
7.849252e+00
7.855726e+00
7.862203e+00
7.868675e+00
7.875155e+00
7.881633e+00
7.888115e+00
7.894602e+00
7.901082e+00
7.907572e+00
7.914065e+00
7.920552e+00
7.927047e+00
7.933542e+00
7.940039e+00
7.946540e+00
7.953036e+00
7.959541e+00
7.966048e+00
7.972549e+00
7.979058e+00
7.985570e+00
7.992077e+00
7.998592e+00
8.005102e+00
8.011619e+00
8.018139e+00
8.024652e+00
8.031174e+00
8.037698e+00
8.044217e+00
8.050742e+00
8.057265e+00
8.063792e+00
8.070321e+00
8.076844e+00
8.083375e+00
8.089908e+00
8.096435e+00
8.102968e+00
8.109499e+00
8.116032e+00
8.122567e+00
8.129096e+00
8.135632e+00
8.142169e+00
8.148698e+00
8.155234e+00
8.161771e+00
8.168301e+00
8.174836e+00
8.181366e+00
8.187899e+00
8.194434e+00
8.200959e+00
8.207491e+00
8.214023e+00
8.220547e+00
8.227074e+00
8.233597e+00
8.240120e+00
8.246643e+00
8.253157e+00
8.259676e+00
8.266193e+00
8.272700e+00
8.279210e+00
8.285716e+00
8.292217e+00
8.298718e+00
8.305209e+00
8.311702e+00
8.318192e+00
8.324669e+00
8.331149e+00
8.337625e+00
8.344088e+00
8.350552e+00
8.357006e+00
8.363457e+00
8.369903e+00
8.376335e+00
8.382768e+00
8.389194e+00
8.395604e+00
8.402012e+00
8.408410e+00
8.414799e+00
8.421182e+00
8.427548e+00
8.433910e+00
8.440264e+00
8.446598e+00
8.452927e+00
8.459244e+00
8.465546e+00
8.471839e+00
8.478113e+00
8.484378e+00
8.490630e+00
8.496859e+00
8.503080e+00
8.509286e+00
8.515468e+00
8.521639e+00
8.527788e+00
8.533921e+00
8.540037e+00
8.546125e+00
8.552200e+00
8.558255e+00
8.564280e+00
8.570288e+00
8.576270e+00
8.582229e+00
8.588164e+00
8.594067e+00
8.599949e+00
8.605805e+00
8.611624e+00
8.617419e+00
8.623182e+00
8.628913e+00
8.634613e+00
8.640274e+00
8.645905e+00
8.651502e+00
8.657053e+00
8.662573e+00
8.668055e+00
8.673489e+00
8.678886e+00
8.684237e+00
8.689545e+00
8.694809e+00
8.700018e+00
8.705185e+00
8.710302e+00
8.715360e+00
8.720370e+00
8.725322e+00
8.730218e+00
8.735057e+00
8.739829e+00
8.744545e+00
8.749197e+00
8.753775e+00
8.758291e+00
8.762736e+00
8.767106e+00
8.771403e+00
8.775619e+00
8.779759e+00
8.783818e+00
8.787784e+00
8.791670e+00
8.795467e+00
8.799162e+00
8.802767e+00
8.806268e+00
8.809669e+00
8.812964e+00
8.816141e+00
8.819211e+00
8.822163e+00
8.824983e+00
8.827682e+00
8.830249e+00
8.832670e+00
8.834950e+00
8.837082e+00
8.839052e+00
8.840857e+00
8.842502e+00
8.843960e+00
8.845221e+00
8.846272e+00
8.847139e+00
8.847809e+00
8.848266e+00
8.848497e+00
