# vtk DataFile Version 3.0
Monodomain MVF
ASCII
DATASET POLYDATA
POINTS 501 float
0.000000e+00 0.000000e+00 0.000000e+00
1.000000e-02 0.000000e+00 0.000000e+00
2.000000e-02 0.000000e+00 0.000000e+00
3.000000e-02 0.000000e+00 0.000000e+00
4.000000e-02 0.000000e+00 0.000000e+00
5.000000e-02 0.000000e+00 0.000000e+00
6.000000e-02 0.000000e+00 0.000000e+00
7.000000e-02 0.000000e+00 0.000000e+00
8.000000e-02 0.000000e+00 0.000000e+00
9.000000e-02 0.000000e+00 0.000000e+00
1.000000e-01 0.000000e+00 0.000000e+00
1.100000e-01 0.000000e+00 0.000000e+00
1.200000e-01 0.000000e+00 0.000000e+00
1.300000e-01 0.000000e+00 0.000000e+00
1.400000e-01 0.000000e+00 0.000000e+00
1.500000e-01 0.000000e+00 0.000000e+00
1.600000e-01 0.000000e+00 0.000000e+00
1.700000e-01 0.000000e+00 0.000000e+00
1.800000e-01 0.000000e+00 0.000000e+00
1.900000e-01 0.000000e+00 0.000000e+00
2.000000e-01 0.000000e+00 0.000000e+00
2.100000e-01 0.000000e+00 0.000000e+00
2.200000e-01 0.000000e+00 0.000000e+00
2.300000e-01 0.000000e+00 0.000000e+00
2.400000e-01 0.000000e+00 0.000000e+00
2.500000e-01 0.000000e+00 0.000000e+00
2.600000e-01 0.000000e+00 0.000000e+00
2.700000e-01 0.000000e+00 0.000000e+00
2.800000e-01 0.000000e+00 0.000000e+00
2.900000e-01 0.000000e+00 0.000000e+00
3.000000e-01 0.000000e+00 0.000000e+00
3.100000e-01 0.000000e+00 0.000000e+00
3.200000e-01 0.000000e+00 0.000000e+00
3.300000e-01 0.000000e+00 0.000000e+00
3.400000e-01 0.000000e+00 0.000000e+00
3.500000e-01 0.000000e+00 0.000000e+00
3.600000e-01 0.000000e+00 0.000000e+00
3.700000e-01 0.000000e+00 0.000000e+00
3.800000e-01 0.000000e+00 0.000000e+00
3.900000e-01 0.000000e+00 0.000000e+00
4.000000e-01 0.000000e+00 0.000000e+00
4.100000e-01 0.000000e+00 0.000000e+00
4.200000e-01 0.000000e+00 0.000000e+00
4.300000e-01 0.000000e+00 0.000000e+00
4.400000e-01 0.000000e+00 0.000000e+00
4.500000e-01 0.000000e+00 0.000000e+00
4.600000e-01 0.000000e+00 0.000000e+00
4.700000e-01 0.000000e+00 0.000000e+00
4.800000e-01 0.000000e+00 0.000000e+00
4.900000e-01 0.000000e+00 0.000000e+00
5.000000e-01 0.000000e+00 0.000000e+00
5.100000e-01 0.000000e+00 0.000000e+00
5.200000e-01 0.000000e+00 0.000000e+00
5.300000e-01 0.000000e+00 0.000000e+00
5.400000e-01 0.000000e+00 0.000000e+00
5.500000e-01 0.000000e+00 0.000000e+00
5.600000e-01 0.000000e+00 0.000000e+00
5.700000e-01 0.000000e+00 0.000000e+00
5.800000e-01 0.000000e+00 0.000000e+00
5.900000e-01 0.000000e+00 0.000000e+00
6.000000e-01 0.000000e+00 0.000000e+00
6.100000e-01 0.000000e+00 0.000000e+00
6.200000e-01 0.000000e+00 0.000000e+00
6.300000e-01 0.000000e+00 0.000000e+00
6.400000e-01 0.000000e+00 0.000000e+00
6.500000e-01 0.000000e+00 0.000000e+00
6.600000e-01 0.000000e+00 0.000000e+00
6.700000e-01 0.000000e+00 0.000000e+00
6.800000e-01 0.000000e+00 0.000000e+00
6.900000e-01 0.000000e+00 0.000000e+00
7.000000e-01 0.000000e+00 0.000000e+00
7.100000e-01 0.000000e+00 0.000000e+00
7.200000e-01 0.000000e+00 0.000000e+00
7.300000e-01 0.000000e+00 0.000000e+00
7.400000e-01 0.000000e+00 0.000000e+00
7.500000e-01 0.000000e+00 0.000000e+00
7.600000e-01 0.000000e+00 0.000000e+00
7.700000e-01 0.000000e+00 0.000000e+00
7.800000e-01 0.000000e+00 0.000000e+00
7.900000e-01 0.000000e+00 0.000000e+00
8.000000e-01 0.000000e+00 0.000000e+00
8.100000e-01 0.000000e+00 0.000000e+00
8.200000e-01 0.000000e+00 0.000000e+00
8.300000e-01 0.000000e+00 0.000000e+00
8.400000e-01 0.000000e+00 0.000000e+00
8.500000e-01 0.000000e+00 0.000000e+00
8.600000e-01 0.000000e+00 0.000000e+00
8.700000e-01 0.000000e+00 0.000000e+00
8.800000e-01 0.000000e+00 0.000000e+00
8.900000e-01 0.000000e+00 0.000000e+00
9.000000e-01 0.000000e+00 0.000000e+00
9.100000e-01 0.000000e+00 0.000000e+00
9.200000e-01 0.000000e+00 0.000000e+00
9.300000e-01 0.000000e+00 0.000000e+00
9.400000e-01 0.000000e+00 0.000000e+00
9.500000e-01 0.000000e+00 0.000000e+00
9.600000e-01 0.000000e+00 0.000000e+00
9.700000e-01 0.000000e+00 0.000000e+00
9.800000e-01 0.000000e+00 0.000000e+00
9.900000e-01 0.000000e+00 0.000000e+00
1.000000e+00 0.000000e+00 0.000000e+00
1.010000e+00 0.000000e+00 0.000000e+00
1.020000e+00 0.000000e+00 0.000000e+00
1.030000e+00 0.000000e+00 0.000000e+00
1.040000e+00 0.000000e+00 0.000000e+00
1.050000e+00 0.000000e+00 0.000000e+00
1.060000e+00 0.000000e+00 0.000000e+00
1.070000e+00 0.000000e+00 0.000000e+00
1.080000e+00 0.000000e+00 0.000000e+00
1.090000e+00 0.000000e+00 0.000000e+00
1.100000e+00 0.000000e+00 0.000000e+00
1.110000e+00 0.000000e+00 0.000000e+00
1.120000e+00 0.000000e+00 0.000000e+00
1.130000e+00 0.000000e+00 0.000000e+00
1.140000e+00 0.000000e+00 0.000000e+00
1.150000e+00 0.000000e+00 0.000000e+00
1.160000e+00 0.000000e+00 0.000000e+00
1.170000e+00 0.000000e+00 0.000000e+00
1.180000e+00 0.000000e+00 0.000000e+00
1.190000e+00 0.000000e+00 0.000000e+00
1.200000e+00 0.000000e+00 0.000000e+00
1.210000e+00 0.000000e+00 0.000000e+00
1.220000e+00 0.000000e+00 0.000000e+00
1.230000e+00 0.000000e+00 0.000000e+00
1.240000e+00 0.000000e+00 0.000000e+00
1.250000e+00 0.000000e+00 0.000000e+00
1.260000e+00 0.000000e+00 0.000000e+00
1.270000e+00 0.000000e+00 0.000000e+00
1.280000e+00 0.000000e+00 0.000000e+00
1.290000e+00 0.000000e+00 0.000000e+00
1.300000e+00 0.000000e+00 0.000000e+00
1.310000e+00 0.000000e+00 0.000000e+00
1.320000e+00 0.000000e+00 0.000000e+00
1.330000e+00 0.000000e+00 0.000000e+00
1.340000e+00 0.000000e+00 0.000000e+00
1.350000e+00 0.000000e+00 0.000000e+00
1.360000e+00 0.000000e+00 0.000000e+00
1.370000e+00 0.000000e+00 0.000000e+00
1.380000e+00 0.000000e+00 0.000000e+00
1.390000e+00 0.000000e+00 0.000000e+00
1.400000e+00 0.000000e+00 0.000000e+00
1.410000e+00 0.000000e+00 0.000000e+00
1.420000e+00 0.000000e+00 0.000000e+00
1.430000e+00 0.000000e+00 0.000000e+00
1.440000e+00 0.000000e+00 0.000000e+00
1.450000e+00 0.000000e+00 0.000000e+00
1.460000e+00 0.000000e+00 0.000000e+00
1.470000e+00 0.000000e+00 0.000000e+00
1.480000e+00 0.000000e+00 0.000000e+00
1.490000e+00 0.000000e+00 0.000000e+00
1.500000e+00 0.000000e+00 0.000000e+00
1.510000e+00 0.000000e+00 0.000000e+00
1.520000e+00 0.000000e+00 0.000000e+00
1.530000e+00 0.000000e+00 0.000000e+00
1.540000e+00 0.000000e+00 0.000000e+00
1.550000e+00 0.000000e+00 0.000000e+00
1.560000e+00 0.000000e+00 0.000000e+00
1.570000e+00 0.000000e+00 0.000000e+00
1.580000e+00 0.000000e+00 0.000000e+00
1.590000e+00 0.000000e+00 0.000000e+00
1.600000e+00 0.000000e+00 0.000000e+00
1.610000e+00 0.000000e+00 0.000000e+00
1.620000e+00 0.000000e+00 0.000000e+00
1.630000e+00 0.000000e+00 0.000000e+00
1.640000e+00 0.000000e+00 0.000000e+00
1.650000e+00 0.000000e+00 0.000000e+00
1.660000e+00 0.000000e+00 0.000000e+00
1.670000e+00 0.000000e+00 0.000000e+00
1.680000e+00 0.000000e+00 0.000000e+00
1.690000e+00 0.000000e+00 0.000000e+00
1.700000e+00 0.000000e+00 0.000000e+00
1.710000e+00 0.000000e+00 0.000000e+00
1.720000e+00 0.000000e+00 0.000000e+00
1.730000e+00 0.000000e+00 0.000000e+00
1.740000e+00 0.000000e+00 0.000000e+00
1.750000e+00 0.000000e+00 0.000000e+00
1.760000e+00 0.000000e+00 0.000000e+00
1.770000e+00 0.000000e+00 0.000000e+00
1.780000e+00 0.000000e+00 0.000000e+00
1.790000e+00 0.000000e+00 0.000000e+00
1.800000e+00 0.000000e+00 0.000000e+00
1.810000e+00 0.000000e+00 0.000000e+00
1.820000e+00 0.000000e+00 0.000000e+00
1.830000e+00 0.000000e+00 0.000000e+00
1.840000e+00 0.000000e+00 0.000000e+00
1.850000e+00 0.000000e+00 0.000000e+00
1.860000e+00 0.000000e+00 0.000000e+00
1.870000e+00 0.000000e+00 0.000000e+00
1.880000e+00 0.000000e+00 0.000000e+00
1.890000e+00 0.000000e+00 0.000000e+00
1.900000e+00 0.000000e+00 0.000000e+00
1.910000e+00 0.000000e+00 0.000000e+00
1.920000e+00 0.000000e+00 0.000000e+00
1.930000e+00 0.000000e+00 0.000000e+00
1.940000e+00 0.000000e+00 0.000000e+00
1.950000e+00 0.000000e+00 0.000000e+00
1.960000e+00 0.000000e+00 0.000000e+00
1.970000e+00 0.000000e+00 0.000000e+00
1.980000e+00 0.000000e+00 0.000000e+00
1.990000e+00 0.000000e+00 0.000000e+00
2.000000e+00 0.000000e+00 0.000000e+00
2.010000e+00 0.000000e+00 0.000000e+00
2.020000e+00 0.000000e+00 0.000000e+00
2.030000e+00 0.000000e+00 0.000000e+00
2.040000e+00 0.000000e+00 0.000000e+00
2.050000e+00 0.000000e+00 0.000000e+00
2.060000e+00 0.000000e+00 0.000000e+00
2.070000e+00 0.000000e+00 0.000000e+00
2.080000e+00 0.000000e+00 0.000000e+00
2.090000e+00 0.000000e+00 0.000000e+00
2.100000e+00 0.000000e+00 0.000000e+00
2.110000e+00 0.000000e+00 0.000000e+00
2.120000e+00 0.000000e+00 0.000000e+00
2.130000e+00 0.000000e+00 0.000000e+00
2.140000e+00 0.000000e+00 0.000000e+00
2.150000e+00 0.000000e+00 0.000000e+00
2.160000e+00 0.000000e+00 0.000000e+00
2.170000e+00 0.000000e+00 0.000000e+00
2.180000e+00 0.000000e+00 0.000000e+00
2.190000e+00 0.000000e+00 0.000000e+00
2.200000e+00 0.000000e+00 0.000000e+00
2.210000e+00 0.000000e+00 0.000000e+00
2.220000e+00 0.000000e+00 0.000000e+00
2.230000e+00 0.000000e+00 0.000000e+00
2.240000e+00 0.000000e+00 0.000000e+00
2.250000e+00 0.000000e+00 0.000000e+00
2.260000e+00 0.000000e+00 0.000000e+00
2.270000e+00 0.000000e+00 0.000000e+00
2.280000e+00 0.000000e+00 0.000000e+00
2.290000e+00 0.000000e+00 0.000000e+00
2.300000e+00 0.000000e+00 0.000000e+00
2.310000e+00 0.000000e+00 0.000000e+00
2.320000e+00 0.000000e+00 0.000000e+00
2.330000e+00 0.000000e+00 0.000000e+00
2.340000e+00 0.000000e+00 0.000000e+00
2.350000e+00 0.000000e+00 0.000000e+00
2.360000e+00 0.000000e+00 0.000000e+00
2.370000e+00 0.000000e+00 0.000000e+00
2.380000e+00 0.000000e+00 0.000000e+00
2.390000e+00 0.000000e+00 0.000000e+00
2.400000e+00 0.000000e+00 0.000000e+00
2.410000e+00 0.000000e+00 0.000000e+00
2.420000e+00 0.000000e+00 0.000000e+00
2.430000e+00 0.000000e+00 0.000000e+00
2.440000e+00 0.000000e+00 0.000000e+00
2.450000e+00 0.000000e+00 0.000000e+00
2.460000e+00 0.000000e+00 0.000000e+00
2.470000e+00 0.000000e+00 0.000000e+00
2.480000e+00 0.000000e+00 0.000000e+00
2.490000e+00 0.000000e+00 0.000000e+00
2.500000e+00 0.000000e+00 0.000000e+00
2.510000e+00 0.000000e+00 0.000000e+00
2.520000e+00 0.000000e+00 0.000000e+00
2.530000e+00 0.000000e+00 0.000000e+00
[...]
POINT_DATA 501
SCALARS vm float 1
LOOKUP_TABLE default
-2.028296e+01
-2.028276e+01
-2.028237e+01
-2.028179e+01
-2.028102e+01
-2.028006e+01
-2.027896e+01
-2.027770e+01
-2.027630e+01
-2.027476e+01
-2.027308e+01
-2.027127e+01
-2.026933e+01
-2.026727e+01
-2.026508e+01
-2.026278e+01
-2.026037e+01
-2.025786e+01
-2.025523e+01
-2.025251e+01
-2.024969e+01
-2.024678e+01
-2.024378e+01
-2.024068e+01
-2.023751e+01
-2.023425e+01
-2.023091e+01
-2.022750e+01
-2.022402e+01
-2.022046e+01
-2.021683e+01
-2.021314e+01
-2.020938e+01
-2.020556e+01
-2.020168e+01
-2.019774e+01
-2.019375e+01
-2.018970e+01
-2.018560e+01
-2.018145e+01
-2.017725e+01
-2.017300e+01
-2.016870e+01
-2.016437e+01
-2.015999e+01
-2.015556e+01
-2.015110e+01
-2.014660e+01
-2.014206e+01
-2.013748e+01
-2.013287e+01
-2.012822e+01
-2.012354e+01
-2.011883e+01
-2.011409e+01
-2.010932e+01
-2.010452e+01
-2.009969e+01
-2.009483e+01
-2.008995e+01
-2.008504e+01
-2.008011e+01
-2.007515e+01
-2.007018e+01
-2.006517e+01
-2.006015e+01
-2.005511e+01
-2.005004e+01
-2.004496e+01
-2.003986e+01
-2.003473e+01
-2.002960e+01
-2.002444e+01
-2.001926e+01
-2.001408e+01
-2.000887e+01
-2.000365e+01
-1.999841e+01
-1.999317e+01
-1.998790e+01
-1.998263e+01
-1.997734e+01
-1.997204e+01
-1.996672e+01
-1.996140e+01
-1.995606e+01
-1.995071e+01
-1.994535e+01
-1.993999e+01
-1.993461e+01
-1.992922e+01
-1.992382e+01
-1.991841e+01
-1.991300e+01
-1.990758e+01
-1.990214e+01
-1.989670e+01
-1.989126e+01
-1.988580e+01
-1.988034e+01
-1.987487e+01
-1.986940e+01
-1.986392e+01
-1.985843e+01
-1.985293e+01
-1.984743e+01
-1.984193e+01
-1.983642e+01
-1.983090e+01
-1.982538e+01
-1.981986e+01
-1.981433e+01
-1.980879e+01
-1.980325e+01
-1.979771e+01
-1.979216e+01
-1.978661e+01
-1.978106e+01
-1.977550e+01
-1.976993e+01
-1.976437e+01
-1.975880e+01
-1.975323e+01
-1.974766e+01
-1.974208e+01
-1.973650e+01
-1.973092e+01
-1.972533e+01
-1.971974e+01
-1.971415e+01
-1.970856e+01
-1.970297e+01
-1.969737e+01
-1.969177e+01
-1.968617e+01
-1.968057e+01
-1.967497e+01
-1.966936e+01
-1.966376e+01
-1.965815e+01
-1.965254e+01
-1.964693e+01
-1.964132e+01
-1.963571e+01
-1.963009e+01
-1.962448e+01
-1.961886e+01
-1.961325e+01
-1.960763e+01
-1.960201e+01
-1.959639e+01
-1.959077e+01
-1.958516e+01
-1.957953e+01
-1.957391e+01
-1.956829e+01
-1.956267e+01
-1.955705e+01
-1.955143e+01
-1.954581e+01
-1.954018e+01
-1.953456e+01
-1.952894e+01
-1.952332e+01
-1.951769e+01
-1.951207e+01
-1.950645e+01
-1.950083e+01
-1.949520e+01
-1.948958e+01
-1.948396e+01
-1.947834e+01
-1.947272e+01
-1.946710e+01
-1.946148e+01
-1.945586e+01
-1.945024e+01
-1.944462e+01
-1.943900e+01
-1.943338e+01
-1.942776e+01
-1.942214e+01
-1.941653e+01
-1.941091e+01
-1.940529e+01
-1.939968e+01
-1.939406e+01
-1.938845e+01
-1.938284e+01
-1.937722e+01
-1.937161e+01
-1.936600e+01
-1.936039e+01
-1.935478e+01
-1.934917e+01
-1.934357e+01
-1.933796e+01
-1.933235e+01
-1.932675e+01
-1.932114e+01
-1.931554e+01
-1.930994e+01
-1.930434e+01
-1.929874e+01
-1.929314e+01
-1.928754e+01
-1.928194e+01
-1.927634e+01
-1.927075e+01
-1.926516e+01
-1.925956e+01
-1.925397e+01
-1.924838e+01
-1.924279e+01
-1.923720e+01
-1.923161e+01
-1.922602e+01
-1.922044e+01
-1.921486e+01
-1.920927e+01
-1.920369e+01
-1.919811e+01
-1.919253e+01
-1.918695e+01
-1.918137e+01
-1.917580e+01
-1.917022e+01
-1.916465e+01
-1.915908e+01
-1.915351e+01
-1.914794e+01
-1.914237e+01
-1.913681e+01
-1.913124e+01
-1.912568e+01
-1.912011e+01
-1.911455e+01
-1.910899e+01
-1.910343e+01
-1.909788e+01
-1.909232e+01
-1.908677e+01
-1.908122e+01
-1.907567e+01
-1.907012e+01
-1.906457e+01
-1.905902e+01
-1.905348e+01
-1.904794e+01
-1.904239e+01
-1.903685e+01
-1.903132e+01
-1.902578e+01
-1.902024e+01
-1.901471e+01
-1.900918e+01
-1.900365e+01
-1.899812e+01
-1.899259e+01
-1.898707e+01
-1.898155e+01
-1.897602e+01
-1.897050e+01
-1.896499e+01
-1.895947e+01
-1.895396e+01
-1.894845e+01
-1.894293e+01
-1.893743e+01
-1.893192e+01
-1.892641e+01
-1.892091e+01
-1.891541e+01
-1.890991e+01
-1.890442e+01
-1.889892e+01
-1.889343e+01
-1.888794e+01
-1.888245e+01
-1.887696e+01
-1.887148e+01
-1.886600e+01
-1.886052e+01
-1.885504e+01
-1.884956e+01
-1.884409e+01
-1.883862e+01
-1.883315e+01
-1.882769e+01
-1.882222e+01
-1.881676e+01
-1.881130e+01
-1.880585e+01
-1.880040e+01
-1.879494e+01
-1.878950e+01
-1.878405e+01
-1.877861e+01
-1.877317e+01
-1.876773e+01
-1.876229e+01
-1.875686e+01
-1.875143e+01
-1.874601e+01
-1.874059e+01
-1.873517e+01
-1.872975e+01
-1.872433e+01
-1.871892e+01
-1.871352e+01
-1.870811e+01
-1.870271e+01
-1.869731e+01
-1.869192e+01
-1.868653e+01
-1.868114e+01
-1.867575e+01
-1.867038e+01
-1.866500e+01
-1.865962e+01
-1.865426e+01
-1.864889e+01
-1.864353e+01
-1.863817e+01
-1.863282e+01
-1.862747e+01
-1.862212e+01
-1.861678e+01
-1.861144e+01
-1.860611e+01
-1.860078e+01
-1.859546e+01
-1.859014e+01
-1.858483e+01
-1.857952e+01
-1.857421e+01
-1.856891e+01
-1.856361e+01
-1.855832e+01
-1.855304e+01
-1.854776e+01
-1.854249e+01
-1.853722e+01
-1.853195e+01
-1.852670e+01
-1.852144e+01
-1.851620e+01
-1.851096e+01
-1.850572e+01
-1.850049e+01
-1.849527e+01
-1.849006e+01
-1.848485e+01
-1.847965e+01
-1.847445e+01
-1.846926e+01
-1.846408e+01
-1.845891e+01
-1.845374e+01
-1.844858e+01
-1.844343e+01
-1.843828e+01
-1.843314e+01
-1.842802e+01
-1.842289e+01
-1.841778e+01
-1.841268e+01
-1.840758e+01
-1.840249e+01
-1.839742e+01
-1.839235e+01
-1.838729e+01
-1.838224e+01
-1.837720e+01
-1.837217e+01
-1.836714e+01
-1.836213e+01
-1.835713e+01
-1.835214e+01
-1.834716e+01
-1.834219e+01
-1.833724e+01
-1.833229e+01
-1.832736e+01
-1.832243e+01
-1.831752e+01
-1.831262e+01
-1.830774e+01
-1.830286e+01
-1.829800e+01
-1.829316e+01
-1.828832e+01
-1.828350e+01
-1.827870e+01
-1.827390e+01
-1.826913e+01
-1.826437e+01
-1.825962e+01
-1.825489e+01
-1.825017e+01
-1.824547e+01
-1.824079e+01
-1.823612e+01
-1.823147e+01
-1.822683e+01
-1.822222e+01
-1.821762e+01
-1.821304e+01
-1.820848e+01
-1.820394e+01
-1.819941e+01
-1.819491e+01
-1.819043e+01
-1.818596e+01
-1.818152e+01
-1.817710e+01
-1.817270e+01
-1.816833e+01
-1.816397e+01
-1.815964e+01
-1.815533e+01
-1.815105e+01
-1.814679e+01
-1.814255e+01
-1.813834e+01
-1.813416e+01
-1.813000e+01
-1.812586e+01
-1.812176e+01
-1.811768e+01
-1.811363e+01
-1.810961e+01
-1.810562e+01
-1.810166e+01
-1.809773e+01
-1.809383e+01
-1.808996e+01
-1.808612e+01
-1.808232e+01
-1.807855e+01
-1.807481e+01
-1.807111e+01
-1.806744e+01
-1.806381e+01
-1.806021e+01
-1.805665e+01
-1.805313e+01
-1.804965e+01
-1.804620e+01
-1.804280e+01
-1.803944e+01
-1.803611e+01
-1.803283e+01
-1.802959e+01
-1.802640e+01
-1.802325e+01
-1.802014e+01
-1.801708e+01
-1.801407e+01
-1.801110e+01
-1.800819e+01
-1.800532e+01
-1.800250e+01
-1.799973e+01
-1.799701e+01
-1.799434e+01
-1.799173e+01
-1.798917e+01
-1.798667e+01
-1.798422e+01
-1.798183e+01
-1.797950e+01
-1.797722e+01
-1.797501e+01
-1.797285e+01
-1.797076e+01
-1.796873e+01
-1.796676e+01
-1.796486e+01
-1.796302e+01
-1.796125e+01
-1.795955e+01
-1.795791e+01
-1.795635e+01
-1.795485e+01
-1.795344e+01
-1.795209e+01
-1.795082e+01
-1.794963e+01
-1.794851e+01
-1.794748e+01
-1.794653e+01
-1.794566e+01
-1.794488e+01
-1.794419e+01
-1.794360e+01
-1.794310e+01
-1.794269e+01
-1.794239e+01
-1.794218e+01
-1.794208e+01
