# vtk DataFile Version 3.0
Monodomain MVF
ASCII
DATASET POLYDATA
POINTS 501 float
0.000000e+00 0.000000e+00 0.000000e+00
1.000000e-02 0.000000e+00 0.000000e+00
2.000000e-02 0.000000e+00 0.000000e+00
3.000000e-02 0.000000e+00 0.000000e+00
4.000000e-02 0.000000e+00 0.000000e+00
5.000000e-02 0.000000e+00 0.000000e+00
6.000000e-02 0.000000e+00 0.000000e+00
7.000000e-02 0.000000e+00 0.000000e+00
8.000000e-02 0.000000e+00 0.000000e+00
9.000000e-02 0.000000e+00 0.000000e+00
1.000000e-01 0.000000e+00 0.000000e+00
1.100000e-01 0.000000e+00 0.000000e+00
1.200000e-01 0.000000e+00 0.000000e+00
1.300000e-01 0.000000e+00 0.000000e+00
1.400000e-01 0.000000e+00 0.000000e+00
1.500000e-01 0.000000e+00 0.000000e+00
1.600000e-01 0.000000e+00 0.000000e+00
1.700000e-01 0.000000e+00 0.000000e+00
1.800000e-01 0.000000e+00 0.000000e+00
1.900000e-01 0.000000e+00 0.000000e+00
2.000000e-01 0.000000e+00 0.000000e+00
2.100000e-01 0.000000e+00 0.000000e+00
2.200000e-01 0.000000e+00 0.000000e+00
2.300000e-01 0.000000e+00 0.000000e+00
2.400000e-01 0.000000e+00 0.000000e+00
2.500000e-01 0.000000e+00 0.000000e+00
2.600000e-01 0.000000e+00 0.000000e+00
2.700000e-01 0.000000e+00 0.000000e+00
2.800000e-01 0.000000e+00 0.000000e+00
2.900000e-01 0.000000e+00 0.000000e+00
3.000000e-01 0.000000e+00 0.000000e+00
3.100000e-01 0.000000e+00 0.000000e+00
3.200000e-01 0.000000e+00 0.000000e+00
3.300000e-01 0.000000e+00 0.000000e+00
3.400000e-01 0.000000e+00 0.000000e+00
3.500000e-01 0.000000e+00 0.000000e+00
3.600000e-01 0.000000e+00 0.000000e+00
3.700000e-01 0.000000e+00 0.000000e+00
3.800000e-01 0.000000e+00 0.000000e+00
3.900000e-01 0.000000e+00 0.000000e+00
4.000000e-01 0.000000e+00 0.000000e+00
4.100000e-01 0.000000e+00 0.000000e+00
4.200000e-01 0.000000e+00 0.000000e+00
4.300000e-01 0.000000e+00 0.000000e+00
4.400000e-01 0.000000e+00 0.000000e+00
4.500000e-01 0.000000e+00 0.000000e+00
4.600000e-01 0.000000e+00 0.000000e+00
4.700000e-01 0.000000e+00 0.000000e+00
4.800000e-01 0.000000e+00 0.000000e+00
4.900000e-01 0.000000e+00 0.000000e+00
5.000000e-01 0.000000e+00 0.000000e+00
5.100000e-01 0.000000e+00 0.000000e+00
5.200000e-01 0.000000e+00 0.000000e+00
5.300000e-01 0.000000e+00 0.000000e+00
5.400000e-01 0.000000e+00 0.000000e+00
5.500000e-01 0.000000e+00 0.000000e+00
5.600000e-01 0.000000e+00 0.000000e+00
5.700000e-01 0.000000e+00 0.000000e+00
5.800000e-01 0.000000e+00 0.000000e+00
5.900000e-01 0.000000e+00 0.000000e+00
6.000000e-01 0.000000e+00 0.000000e+00
6.100000e-01 0.000000e+00 0.000000e+00
6.200000e-01 0.000000e+00 0.000000e+00
6.300000e-01 0.000000e+00 0.000000e+00
6.400000e-01 0.000000e+00 0.000000e+00
6.500000e-01 0.000000e+00 0.000000e+00
6.600000e-01 0.000000e+00 0.000000e+00
6.700000e-01 0.000000e+00 0.000000e+00
6.800000e-01 0.000000e+00 0.000000e+00
6.900000e-01 0.000000e+00 0.000000e+00
7.000000e-01 0.000000e+00 0.000000e+00
7.100000e-01 0.000000e+00 0.000000e+00
7.200000e-01 0.000000e+00 0.000000e+00
7.300000e-01 0.000000e+00 0.000000e+00
7.400000e-01 0.000000e+00 0.000000e+00
7.500000e-01 0.000000e+00 0.000000e+00
7.600000e-01 0.000000e+00 0.000000e+00
7.700000e-01 0.000000e+00 0.000000e+00
7.800000e-01 0.000000e+00 0.000000e+00
7.900000e-01 0.000000e+00 0.000000e+00
8.000000e-01 0.000000e+00 0.000000e+00
8.100000e-01 0.000000e+00 0.000000e+00
8.200000e-01 0.000000e+00 0.000000e+00
8.300000e-01 0.000000e+00 0.000000e+00
8.400000e-01 0.000000e+00 0.000000e+00
8.500000e-01 0.000000e+00 0.000000e+00
8.600000e-01 0.000000e+00 0.000000e+00
8.700000e-01 0.000000e+00 0.000000e+00
8.800000e-01 0.000000e+00 0.000000e+00
8.900000e-01 0.000000e+00 0.000000e+00
9.000000e-01 0.000000e+00 0.000000e+00
9.100000e-01 0.000000e+00 0.000000e+00
9.200000e-01 0.000000e+00 0.000000e+00
9.300000e-01 0.000000e+00 0.000000e+00
9.400000e-01 0.000000e+00 0.000000e+00
9.500000e-01 0.000000e+00 0.000000e+00
9.600000e-01 0.000000e+00 0.000000e+00
9.700000e-01 0.000000e+00 0.000000e+00
9.800000e-01 0.000000e+00 0.000000e+00
9.900000e-01 0.000000e+00 0.000000e+00
1.000000e+00 0.000000e+00 0.000000e+00
1.010000e+00 0.000000e+00 0.000000e+00
1.020000e+00 0.000000e+00 0.000000e+00
1.030000e+00 0.000000e+00 0.000000e+00
1.040000e+00 0.000000e+00 0.000000e+00
1.050000e+00 0.000000e+00 0.000000e+00
1.060000e+00 0.000000e+00 0.000000e+00
1.070000e+00 0.000000e+00 0.000000e+00
1.080000e+00 0.000000e+00 0.000000e+00
1.090000e+00 0.000000e+00 0.000000e+00
1.100000e+00 0.000000e+00 0.000000e+00
1.110000e+00 0.000000e+00 0.000000e+00
1.120000e+00 0.000000e+00 0.000000e+00
1.130000e+00 0.000000e+00 0.000000e+00
1.140000e+00 0.000000e+00 0.000000e+00
1.150000e+00 0.000000e+00 0.000000e+00
1.160000e+00 0.000000e+00 0.000000e+00
1.170000e+00 0.000000e+00 0.000000e+00
1.180000e+00 0.000000e+00 0.000000e+00
1.190000e+00 0.000000e+00 0.000000e+00
1.200000e+00 0.000000e+00 0.000000e+00
1.210000e+00 0.000000e+00 0.000000e+00
1.220000e+00 0.000000e+00 0.000000e+00
1.230000e+00 0.000000e+00 0.000000e+00
1.240000e+00 0.000000e+00 0.000000e+00
1.250000e+00 0.000000e+00 0.000000e+00
1.260000e+00 0.000000e+00 0.000000e+00
1.270000e+00 0.000000e+00 0.000000e+00
1.280000e+00 0.000000e+00 0.000000e+00
1.290000e+00 0.000000e+00 0.000000e+00
1.300000e+00 0.000000e+00 0.000000e+00
1.310000e+00 0.000000e+00 0.000000e+00
1.320000e+00 0.000000e+00 0.000000e+00
1.330000e+00 0.000000e+00 0.000000e+00
1.340000e+00 0.000000e+00 0.000000e+00
1.350000e+00 0.000000e+00 0.000000e+00
1.360000e+00 0.000000e+00 0.000000e+00
1.370000e+00 0.000000e+00 0.000000e+00
1.380000e+00 0.000000e+00 0.000000e+00
1.390000e+00 0.000000e+00 0.000000e+00
1.400000e+00 0.000000e+00 0.000000e+00
1.410000e+00 0.000000e+00 0.000000e+00
1.420000e+00 0.000000e+00 0.000000e+00
1.430000e+00 0.000000e+00 0.000000e+00
1.440000e+00 0.000000e+00 0.000000e+00
1.450000e+00 0.000000e+00 0.000000e+00
1.460000e+00 0.000000e+00 0.000000e+00
1.470000e+00 0.000000e+00 0.000000e+00
1.480000e+00 0.000000e+00 0.000000e+00
1.490000e+00 0.000000e+00 0.000000e+00
1.500000e+00 0.000000e+00 0.000000e+00
1.510000e+00 0.000000e+00 0.000000e+00
1.520000e+00 0.000000e+00 0.000000e+00
1.530000e+00 0.000000e+00 0.000000e+00
1.540000e+00 0.000000e+00 0.000000e+00
1.550000e+00 0.000000e+00 0.000000e+00
1.560000e+00 0.000000e+00 0.000000e+00
1.570000e+00 0.000000e+00 0.000000e+00
1.580000e+00 0.000000e+00 0.000000e+00
1.590000e+00 0.000000e+00 0.000000e+00
1.600000e+00 0.000000e+00 0.000000e+00
1.610000e+00 0.000000e+00 0.000000e+00
1.620000e+00 0.000000e+00 0.000000e+00
1.630000e+00 0.000000e+00 0.000000e+00
1.640000e+00 0.000000e+00 0.000000e+00
1.650000e+00 0.000000e+00 0.000000e+00
1.660000e+00 0.000000e+00 0.000000e+00
1.670000e+00 0.000000e+00 0.000000e+00
1.680000e+00 0.000000e+00 0.000000e+00
1.690000e+00 0.000000e+00 0.000000e+00
1.700000e+00 0.000000e+00 0.000000e+00
1.710000e+00 0.000000e+00 0.000000e+00
1.720000e+00 0.000000e+00 0.000000e+00
1.730000e+00 0.000000e+00 0.000000e+00
1.740000e+00 0.000000e+00 0.000000e+00
1.750000e+00 0.000000e+00 0.000000e+00
1.760000e+00 0.000000e+00 0.000000e+00
1.770000e+00 0.000000e+00 0.000000e+00
1.780000e+00 0.000000e+00 0.000000e+00
1.790000e+00 0.000000e+00 0.000000e+00
1.800000e+00 0.000000e+00 0.000000e+00
1.810000e+00 0.000000e+00 0.000000e+00
1.820000e+00 0.000000e+00 0.000000e+00
1.830000e+00 0.000000e+00 0.000000e+00
1.840000e+00 0.000000e+00 0.000000e+00
1.850000e+00 0.000000e+00 0.000000e+00
1.860000e+00 0.000000e+00 0.000000e+00
1.870000e+00 0.000000e+00 0.000000e+00
1.880000e+00 0.000000e+00 0.000000e+00
1.890000e+00 0.000000e+00 0.000000e+00
1.900000e+00 0.000000e+00 0.000000e+00
1.910000e+00 0.000000e+00 0.000000e+00
1.920000e+00 0.000000e+00 0.000000e+00
1.930000e+00 0.000000e+00 0.000000e+00
1.940000e+00 0.000000e+00 0.000000e+00
1.950000e+00 0.000000e+00 0.000000e+00
1.960000e+00 0.000000e+00 0.000000e+00
1.970000e+00 0.000000e+00 0.000000e+00
1.980000e+00 0.000000e+00 0.000000e+00
1.990000e+00 0.000000e+00 0.000000e+00
2.000000e+00 0.000000e+00 0.000000e+00
2.010000e+00 0.000000e+00 0.000000e+00
2.020000e+00 0.000000e+00 0.000000e+00
2.030000e+00 0.000000e+00 0.000000e+00
2.040000e+00 0.000000e+00 0.000000e+00
2.050000e+00 0.000000e+00 0.000000e+00
2.060000e+00 0.000000e+00 0.000000e+00
2.070000e+00 0.000000e+00 0.000000e+00
2.080000e+00 0.000000e+00 0.000000e+00
2.090000e+00 0.000000e+00 0.000000e+00
2.100000e+00 0.000000e+00 0.000000e+00
2.110000e+00 0.000000e+00 0.000000e+00
2.120000e+00 0.000000e+00 0.000000e+00
2.130000e+00 0.000000e+00 0.000000e+00
2.140000e+00 0.000000e+00 0.000000e+00
2.150000e+00 0.000000e+00 0.000000e+00
2.160000e+00 0.000000e+00 0.000000e+00
2.170000e+00 0.000000e+00 0.000000e+00
2.180000e+00 0.000000e+00 0.000000e+00
2.190000e+00 0.000000e+00 0.000000e+00
2.200000e+00 0.000000e+00 0.000000e+00
2.210000e+00 0.000000e+00 0.000000e+00
2.220000e+00 0.000000e+00 0.000000e+00
2.230000e+00 0.000000e+00 0.000000e+00
2.240000e+00 0.000000e+00 0.000000e+00
2.250000e+00 0.000000e+00 0.000000e+00
2.260000e+00 0.000000e+00 0.000000e+00
2.270000e+00 0.000000e+00 0.000000e+00
2.280000e+00 0.000000e+00 0.000000e+00
2.290000e+00 0.000000e+00 0.000000e+00
2.300000e+00 0.000000e+00 0.000000e+00
2.310000e+00 0.000000e+00 0.000000e+00
2.320000e+00 0.000000e+00 0.000000e+00
2.330000e+00 0.000000e+00 0.000000e+00
2.340000e+00 0.000000e+00 0.000000e+00
2.350000e+00 0.000000e+00 0.000000e+00
2.360000e+00 0.000000e+00 0.000000e+00
2.370000e+00 0.000000e+00 0.000000e+00
2.380000e+00 0.000000e+00 0.000000e+00
2.390000e+00 0.000000e+00 0.000000e+00
2.400000e+00 0.000000e+00 0.000000e+00
2.410000e+00 0.000000e+00 0.000000e+00
2.420000e+00 0.000000e+00 0.000000e+00
2.430000e+00 0.000000e+00 0.000000e+00
2.440000e+00 0.000000e+00 0.000000e+00
2.450000e+00 0.000000e+00 0.000000e+00
2.460000e+00 0.000000e+00 0.000000e+00
2.470000e+00 0.000000e+00 0.000000e+00
2.480000e+00 0.000000e+00 0.000000e+00
2.490000e+00 0.000000e+00 0.000000e+00
2.500000e+00 0.000000e+00 0.000000e+00
2.510000e+00 0.000000e+00 0.000000e+00
2.520000e+00 0.000000e+00 0.000000e+00
2.530000e+00 0.000000e+00 0.000000e+00
[...]
POINT_DATA 501
SCALARS vm float 1
LOOKUP_TABLE default
1.762263e+00
1.762574e+00
1.763195e+00
1.764117e+00
1.765329e+00
1.766846e+00
1.768574e+00
1.770507e+00
1.772647e+00
1.774986e+00
1.777506e+00
1.780204e+00
1.783073e+00
1.786100e+00
1.789284e+00
1.792616e+00
1.796087e+00
1.799694e+00
1.803432e+00
1.807288e+00
1.811265e+00
1.815356e+00
1.819548e+00
1.823847e+00
1.828245e+00
1.832729e+00
1.837307e+00
1.841971e+00
1.846709e+00
1.851529e+00
1.856423e+00
1.861382e+00
1.866412e+00
1.871501e+00
1.876653e+00
1.881865e+00
1.887124e+00
1.892442e+00
1.897809e+00
1.903218e+00
1.908676e+00
1.914177e+00
1.919714e+00
1.925294e+00
1.930905e+00
1.936556e+00
1.942240e+00
1.947949e+00
1.953693e+00
1.959466e+00
1.965260e+00
1.971084e+00
1.976929e+00
1.982798e+00
1.988690e+00
1.994596e+00
2.000527e+00
2.006477e+00
2.012437e+00
2.018419e+00
2.024417e+00
2.030423e+00
2.036449e+00
2.042481e+00
2.048530e+00
2.054592e+00
2.060657e+00
2.066738e+00
2.072829e+00
2.078923e+00
2.085030e+00
2.091141e+00
2.097261e+00
2.103390e+00
2.109518e+00
2.115659e+00
2.121805e+00
2.127950e+00
2.134105e+00
2.140263e+00
2.146422e+00
2.152589e+00
2.158752e+00
2.164925e+00
2.171101e+00
2.177273e+00
2.183453e+00
2.189635e+00
2.195814e+00
2.201999e+00
2.208181e+00
2.214368e+00
2.220558e+00
2.226742e+00
2.232932e+00
2.239124e+00
2.245310e+00
2.251502e+00
2.257691e+00
2.263882e+00
2.270075e+00
2.276260e+00
2.282453e+00
2.288645e+00
2.294831e+00
2.301022e+00
2.307213e+00
2.313398e+00
2.319588e+00
2.325772e+00
2.331959e+00
2.338148e+00
2.344329e+00
2.350515e+00
2.356700e+00
2.362880e+00
2.369063e+00
2.375241e+00
2.381422e+00
2.387604e+00
2.393777e+00
2.399956e+00
2.406135e+00
2.412307e+00
2.418483e+00
2.424655e+00
2.430827e+00
2.437000e+00
2.443166e+00
2.449338e+00
2.455509e+00
2.461672e+00
2.467840e+00
2.474007e+00
2.480169e+00
2.486334e+00
2.492493e+00
2.498656e+00
2.504820e+00
2.510975e+00
2.517136e+00
2.523296e+00
2.529450e+00
2.535608e+00
2.541761e+00
2.547917e+00
2.554073e+00
2.560221e+00
2.566376e+00
2.572530e+00
2.578677e+00
2.584828e+00
2.590977e+00
2.597125e+00
2.603275e+00
2.609418e+00
2.615567e+00
2.621715e+00
2.627856e+00
2.634003e+00
2.640149e+00
2.646289e+00
2.652434e+00
2.658573e+00
2.664716e+00
2.670860e+00
2.676997e+00
2.683139e+00
2.689281e+00
2.695418e+00
2.701558e+00
2.707695e+00
2.713834e+00
2.719974e+00
2.726107e+00
2.732246e+00
2.738386e+00
2.744518e+00
2.750656e+00
2.756792e+00
2.762927e+00
2.769064e+00
2.775195e+00
2.781332e+00
2.787470e+00
2.793600e+00
2.799736e+00
2.805872e+00
2.812003e+00
2.818139e+00
2.824269e+00
2.830404e+00
2.836540e+00
2.842669e+00
2.848804e+00
2.854940e+00
2.861070e+00
2.867205e+00
2.873336e+00
2.879469e+00
2.885605e+00
2.891733e+00
2.897869e+00
2.904004e+00
2.910134e+00
2.916269e+00
2.922402e+00
2.928534e+00
2.934670e+00
2.940800e+00
2.946935e+00
2.953071e+00
2.959201e+00
2.965336e+00
2.971473e+00
2.977604e+00
2.983740e+00
2.989872e+00
2.996007e+00
3.002145e+00
3.008275e+00
3.014413e+00
3.020550e+00
3.026683e+00
3.032820e+00
3.038955e+00
3.045091e+00
3.051230e+00
3.057363e+00
3.063502e+00
3.069642e+00
3.075776e+00
3.081915e+00
3.088054e+00
3.094191e+00
3.100332e+00
3.106467e+00
3.112608e+00
3.118750e+00
3.124886e+00
3.131028e+00
3.137171e+00
3.143309e+00
3.149452e+00
3.155591e+00
3.161734e+00
3.167878e+00
3.174017e+00
3.180162e+00
3.186308e+00
3.192448e+00
3.198593e+00
3.204737e+00
3.210881e+00
3.217029e+00
3.223170e+00
3.229318e+00
3.235467e+00
3.241610e+00
3.247758e+00
3.253907e+00
3.260053e+00
3.266203e+00
3.272348e+00
3.278498e+00
3.284650e+00
3.290796e+00
3.296948e+00
3.303101e+00
3.309249e+00
3.315401e+00
3.321551e+00
3.327704e+00
3.333858e+00
3.340007e+00
3.346162e+00
3.352318e+00
3.358469e+00
3.364624e+00
3.370778e+00
3.376933e+00
3.383090e+00
3.389242e+00
3.395400e+00
3.401559e+00
3.407712e+00
3.413871e+00
3.420030e+00
3.426185e+00
3.432345e+00
3.438500e+00
3.444660e+00
3.450822e+00
3.456977e+00
3.463138e+00
3.469301e+00
3.475458e+00
3.481619e+00
3.487778e+00
3.493940e+00
3.500103e+00
3.506260e+00
3.512423e+00
3.518588e+00
3.524746e+00
3.530910e+00
3.537071e+00
3.543234e+00
3.549398e+00
3.555557e+00
3.561721e+00
3.567887e+00
3.574046e+00
3.580210e+00
3.586375e+00
3.592536e+00
3.598700e+00
3.604861e+00
3.611025e+00
3.617190e+00
3.623349e+00
3.629514e+00
3.635679e+00
3.641838e+00
3.648002e+00
3.654162e+00
3.660325e+00
3.666488e+00
3.672646e+00
3.678809e+00
3.684972e+00
3.691129e+00
3.697290e+00
3.703449e+00
3.709608e+00
3.715768e+00
3.721923e+00
3.728082e+00
3.734241e+00
3.740393e+00
3.746550e+00
3.752707e+00
3.758858e+00
3.765012e+00
3.771162e+00
3.777314e+00
3.783466e+00
3.789611e+00
3.795761e+00
3.801910e+00
3.808053e+00
3.814198e+00
3.820340e+00
3.826481e+00
3.832623e+00
3.838757e+00
3.844896e+00
3.851034e+00
3.857163e+00
3.863296e+00
3.869425e+00
3.875552e+00
3.881678e+00
3.887798e+00
3.893920e+00
3.900041e+00
3.906153e+00
3.912267e+00
3.918380e+00
3.924484e+00
3.930590e+00
3.936689e+00
3.942788e+00
3.948885e+00
3.954973e+00
3.961062e+00
3.967149e+00
3.973226e+00
3.979303e+00
3.985375e+00
3.991443e+00
3.997508e+00
4.003563e+00
4.009618e+00
4.015670e+00
4.021710e+00
4.027749e+00
4.033782e+00
4.039809e+00
4.045832e+00
4.051844e+00
4.057854e+00
4.063858e+00
4.069850e+00
4.075839e+00
4.081823e+00
4.087794e+00
4.093760e+00
4.099716e+00
4.105666e+00
4.111609e+00
4.117536e+00
4.123461e+00
4.129376e+00
4.135276e+00
4.141170e+00
4.147052e+00
4.152924e+00
4.158786e+00
4.164632e+00
4.170471e+00
4.176298e+00
4.182107e+00
4.187907e+00
4.193693e+00
4.199464e+00
4.205222e+00
4.210962e+00
4.216690e+00
4.222404e+00
4.228095e+00
4.233774e+00
4.239438e+00
4.245078e+00
4.250703e+00
4.256307e+00
4.261893e+00
4.267460e+00
4.273001e+00
4.278526e+00
4.284030e+00
4.289505e+00
4.294960e+00
4.300390e+00
4.305796e+00
4.311177e+00
4.316528e+00
4.321855e+00
4.327155e+00
4.332421e+00
4.337661e+00
4.342870e+00
4.348047e+00
4.353192e+00
4.358301e+00
4.363378e+00
4.368421e+00
4.373422e+00
4.378390e+00
4.383321e+00
4.388207e+00
4.393055e+00
4.397859e+00
4.402622e+00
4.407341e+00
4.412008e+00
4.416634e+00
4.421213e+00
4.425735e+00
4.430210e+00
4.434632e+00
4.438999e+00
4.443312e+00
4.447563e+00
4.451759e+00
4.455896e+00
4.459964e+00
4.463972e+00
4.467915e+00
4.471787e+00
4.475591e+00
4.479320e+00
4.482979e+00
4.486563e+00
4.490062e+00
4.493486e+00
4.496828e+00
4.500079e+00
4.503245e+00
4.506319e+00
4.509301e+00
4.512187e+00
4.514968e+00
4.517652e+00
4.520229e+00
4.522691e+00
4.525043e+00
4.527278e+00
4.529385e+00
4.531367e+00
4.533218e+00
4.534930e+00
4.536494e+00
4.537918e+00
4.539183e+00
4.540276e+00
4.541187e+00
4.541934e+00
4.542509e+00
4.542900e+00
4.543098e+00
