# vtk DataFile Version 3.0
Monodomain MVF
ASCII
DATASET POLYDATA
POINTS 501 float
0.000000e+00 0.000000e+00 0.000000e+00
1.000000e-02 0.000000e+00 0.000000e+00
2.000000e-02 0.000000e+00 0.000000e+00
3.000000e-02 0.000000e+00 0.000000e+00
4.000000e-02 0.000000e+00 0.000000e+00
5.000000e-02 0.000000e+00 0.000000e+00
6.000000e-02 0.000000e+00 0.000000e+00
7.000000e-02 0.000000e+00 0.000000e+00
8.000000e-02 0.000000e+00 0.000000e+00
9.000000e-02 0.000000e+00 0.000000e+00
1.000000e-01 0.000000e+00 0.000000e+00
1.100000e-01 0.000000e+00 0.000000e+00
1.200000e-01 0.000000e+00 0.000000e+00
1.300000e-01 0.000000e+00 0.000000e+00
1.400000e-01 0.000000e+00 0.000000e+00
1.500000e-01 0.000000e+00 0.000000e+00
1.600000e-01 0.000000e+00 0.000000e+00
1.700000e-01 0.000000e+00 0.000000e+00
1.800000e-01 0.000000e+00 0.000000e+00
1.900000e-01 0.000000e+00 0.000000e+00
2.000000e-01 0.000000e+00 0.000000e+00
2.100000e-01 0.000000e+00 0.000000e+00
2.200000e-01 0.000000e+00 0.000000e+00
2.300000e-01 0.000000e+00 0.000000e+00
2.400000e-01 0.000000e+00 0.000000e+00
2.500000e-01 0.000000e+00 0.000000e+00
2.600000e-01 0.000000e+00 0.000000e+00
2.700000e-01 0.000000e+00 0.000000e+00
2.800000e-01 0.000000e+00 0.000000e+00
2.900000e-01 0.000000e+00 0.000000e+00
3.000000e-01 0.000000e+00 0.000000e+00
3.100000e-01 0.000000e+00 0.000000e+00
3.200000e-01 0.000000e+00 0.000000e+00
3.300000e-01 0.000000e+00 0.000000e+00
3.400000e-01 0.000000e+00 0.000000e+00
3.500000e-01 0.000000e+00 0.000000e+00
3.600000e-01 0.000000e+00 0.000000e+00
3.700000e-01 0.000000e+00 0.000000e+00
3.800000e-01 0.000000e+00 0.000000e+00
3.900000e-01 0.000000e+00 0.000000e+00
4.000000e-01 0.000000e+00 0.000000e+00
4.100000e-01 0.000000e+00 0.000000e+00
4.200000e-01 0.000000e+00 0.000000e+00
4.300000e-01 0.000000e+00 0.000000e+00
4.400000e-01 0.000000e+00 0.000000e+00
4.500000e-01 0.000000e+00 0.000000e+00
4.600000e-01 0.000000e+00 0.000000e+00
4.700000e-01 0.000000e+00 0.000000e+00
4.800000e-01 0.000000e+00 0.000000e+00
4.900000e-01 0.000000e+00 0.000000e+00
5.000000e-01 0.000000e+00 0.000000e+00
5.100000e-01 0.000000e+00 0.000000e+00
5.200000e-01 0.000000e+00 0.000000e+00
5.300000e-01 0.000000e+00 0.000000e+00
5.400000e-01 0.000000e+00 0.000000e+00
5.500000e-01 0.000000e+00 0.000000e+00
5.600000e-01 0.000000e+00 0.000000e+00
5.700000e-01 0.000000e+00 0.000000e+00
5.800000e-01 0.000000e+00 0.000000e+00
5.900000e-01 0.000000e+00 0.000000e+00
6.000000e-01 0.000000e+00 0.000000e+00
6.100000e-01 0.000000e+00 0.000000e+00
6.200000e-01 0.000000e+00 0.000000e+00
6.300000e-01 0.000000e+00 0.000000e+00
6.400000e-01 0.000000e+00 0.000000e+00
6.500000e-01 0.000000e+00 0.000000e+00
6.600000e-01 0.000000e+00 0.000000e+00
6.700000e-01 0.000000e+00 0.000000e+00
6.800000e-01 0.000000e+00 0.000000e+00
6.900000e-01 0.000000e+00 0.000000e+00
7.000000e-01 0.000000e+00 0.000000e+00
7.100000e-01 0.000000e+00 0.000000e+00
7.200000e-01 0.000000e+00 0.000000e+00
7.300000e-01 0.000000e+00 0.000000e+00
7.400000e-01 0.000000e+00 0.000000e+00
7.500000e-01 0.000000e+00 0.000000e+00
7.600000e-01 0.000000e+00 0.000000e+00
7.700000e-01 0.000000e+00 0.000000e+00
7.800000e-01 0.000000e+00 0.000000e+00
7.900000e-01 0.000000e+00 0.000000e+00
8.000000e-01 0.000000e+00 0.000000e+00
8.100000e-01 0.000000e+00 0.000000e+00
8.200000e-01 0.000000e+00 0.000000e+00
8.300000e-01 0.000000e+00 0.000000e+00
8.400000e-01 0.000000e+00 0.000000e+00
8.500000e-01 0.000000e+00 0.000000e+00
8.600000e-01 0.000000e+00 0.000000e+00
8.700000e-01 0.000000e+00 0.000000e+00
8.800000e-01 0.000000e+00 0.000000e+00
8.900000e-01 0.000000e+00 0.000000e+00
9.000000e-01 0.000000e+00 0.000000e+00
9.100000e-01 0.000000e+00 0.000000e+00
9.200000e-01 0.000000e+00 0.000000e+00
9.300000e-01 0.000000e+00 0.000000e+00
9.400000e-01 0.000000e+00 0.000000e+00
9.500000e-01 0.000000e+00 0.000000e+00
9.600000e-01 0.000000e+00 0.000000e+00
9.700000e-01 0.000000e+00 0.000000e+00
9.800000e-01 0.000000e+00 0.000000e+00
9.900000e-01 0.000000e+00 0.000000e+00
1.000000e+00 0.000000e+00 0.000000e+00
1.010000e+00 0.000000e+00 0.000000e+00
1.020000e+00 0.000000e+00 0.000000e+00
1.030000e+00 0.000000e+00 0.000000e+00
1.040000e+00 0.000000e+00 0.000000e+00
1.050000e+00 0.000000e+00 0.000000e+00
1.060000e+00 0.000000e+00 0.000000e+00
1.070000e+00 0.000000e+00 0.000000e+00
1.080000e+00 0.000000e+00 0.000000e+00
1.090000e+00 0.000000e+00 0.000000e+00
1.100000e+00 0.000000e+00 0.000000e+00
1.110000e+00 0.000000e+00 0.000000e+00
1.120000e+00 0.000000e+00 0.000000e+00
1.130000e+00 0.000000e+00 0.000000e+00
1.140000e+00 0.000000e+00 0.000000e+00
1.150000e+00 0.000000e+00 0.000000e+00
1.160000e+00 0.000000e+00 0.000000e+00
1.170000e+00 0.000000e+00 0.000000e+00
1.180000e+00 0.000000e+00 0.000000e+00
1.190000e+00 0.000000e+00 0.000000e+00
1.200000e+00 0.000000e+00 0.000000e+00
1.210000e+00 0.000000e+00 0.000000e+00
1.220000e+00 0.000000e+00 0.000000e+00
1.230000e+00 0.000000e+00 0.000000e+00
1.240000e+00 0.000000e+00 0.000000e+00
1.250000e+00 0.000000e+00 0.000000e+00
1.260000e+00 0.000000e+00 0.000000e+00
1.270000e+00 0.000000e+00 0.000000e+00
1.280000e+00 0.000000e+00 0.000000e+00
1.290000e+00 0.000000e+00 0.000000e+00
1.300000e+00 0.000000e+00 0.000000e+00
1.310000e+00 0.000000e+00 0.000000e+00
1.320000e+00 0.000000e+00 0.000000e+00
1.330000e+00 0.000000e+00 0.000000e+00
1.340000e+00 0.000000e+00 0.000000e+00
1.350000e+00 0.000000e+00 0.000000e+00
1.360000e+00 0.000000e+00 0.000000e+00
1.370000e+00 0.000000e+00 0.000000e+00
1.380000e+00 0.000000e+00 0.000000e+00
1.390000e+00 0.000000e+00 0.000000e+00
1.400000e+00 0.000000e+00 0.000000e+00
1.410000e+00 0.000000e+00 0.000000e+00
1.420000e+00 0.000000e+00 0.000000e+00
1.430000e+00 0.000000e+00 0.000000e+00
1.440000e+00 0.000000e+00 0.000000e+00
1.450000e+00 0.000000e+00 0.000000e+00
1.460000e+00 0.000000e+00 0.000000e+00
1.470000e+00 0.000000e+00 0.000000e+00
1.480000e+00 0.000000e+00 0.000000e+00
1.490000e+00 0.000000e+00 0.000000e+00
1.500000e+00 0.000000e+00 0.000000e+00
1.510000e+00 0.000000e+00 0.000000e+00
1.520000e+00 0.000000e+00 0.000000e+00
1.530000e+00 0.000000e+00 0.000000e+00
1.540000e+00 0.000000e+00 0.000000e+00
1.550000e+00 0.000000e+00 0.000000e+00
1.560000e+00 0.000000e+00 0.000000e+00
1.570000e+00 0.000000e+00 0.000000e+00
1.580000e+00 0.000000e+00 0.000000e+00
1.590000e+00 0.000000e+00 0.000000e+00
1.600000e+00 0.000000e+00 0.000000e+00
1.610000e+00 0.000000e+00 0.000000e+00
1.620000e+00 0.000000e+00 0.000000e+00
1.630000e+00 0.000000e+00 0.000000e+00
1.640000e+00 0.000000e+00 0.000000e+00
1.650000e+00 0.000000e+00 0.000000e+00
1.660000e+00 0.000000e+00 0.000000e+00
1.670000e+00 0.000000e+00 0.000000e+00
1.680000e+00 0.000000e+00 0.000000e+00
1.690000e+00 0.000000e+00 0.000000e+00
1.700000e+00 0.000000e+00 0.000000e+00
1.710000e+00 0.000000e+00 0.000000e+00
1.720000e+00 0.000000e+00 0.000000e+00
1.730000e+00 0.000000e+00 0.000000e+00
1.740000e+00 0.000000e+00 0.000000e+00
1.750000e+00 0.000000e+00 0.000000e+00
1.760000e+00 0.000000e+00 0.000000e+00
1.770000e+00 0.000000e+00 0.000000e+00
1.780000e+00 0.000000e+00 0.000000e+00
1.790000e+00 0.000000e+00 0.000000e+00
1.800000e+00 0.000000e+00 0.000000e+00
1.810000e+00 0.000000e+00 0.000000e+00
1.820000e+00 0.000000e+00 0.000000e+00
1.830000e+00 0.000000e+00 0.000000e+00
1.840000e+00 0.000000e+00 0.000000e+00
1.850000e+00 0.000000e+00 0.000000e+00
1.860000e+00 0.000000e+00 0.000000e+00
1.870000e+00 0.000000e+00 0.000000e+00
1.880000e+00 0.000000e+00 0.000000e+00
1.890000e+00 0.000000e+00 0.000000e+00
1.900000e+00 0.000000e+00 0.000000e+00
1.910000e+00 0.000000e+00 0.000000e+00
1.920000e+00 0.000000e+00 0.000000e+00
1.930000e+00 0.000000e+00 0.000000e+00
1.940000e+00 0.000000e+00 0.000000e+00
1.950000e+00 0.000000e+00 0.000000e+00
1.960000e+00 0.000000e+00 0.000000e+00
1.970000e+00 0.000000e+00 0.000000e+00
1.980000e+00 0.000000e+00 0.000000e+00
1.990000e+00 0.000000e+00 0.000000e+00
2.000000e+00 0.000000e+00 0.000000e+00
2.010000e+00 0.000000e+00 0.000000e+00
2.020000e+00 0.000000e+00 0.000000e+00
2.030000e+00 0.000000e+00 0.000000e+00
2.040000e+00 0.000000e+00 0.000000e+00
2.050000e+00 0.000000e+00 0.000000e+00
2.060000e+00 0.000000e+00 0.000000e+00
2.070000e+00 0.000000e+00 0.000000e+00
2.080000e+00 0.000000e+00 0.000000e+00
2.090000e+00 0.000000e+00 0.000000e+00
2.100000e+00 0.000000e+00 0.000000e+00
2.110000e+00 0.000000e+00 0.000000e+00
2.120000e+00 0.000000e+00 0.000000e+00
2.130000e+00 0.000000e+00 0.000000e+00
2.140000e+00 0.000000e+00 0.000000e+00
2.150000e+00 0.000000e+00 0.000000e+00
2.160000e+00 0.000000e+00 0.000000e+00
2.170000e+00 0.000000e+00 0.000000e+00
2.180000e+00 0.000000e+00 0.000000e+00
2.190000e+00 0.000000e+00 0.000000e+00
2.200000e+00 0.000000e+00 0.000000e+00
2.210000e+00 0.000000e+00 0.000000e+00
2.220000e+00 0.000000e+00 0.000000e+00
2.230000e+00 0.000000e+00 0.000000e+00
2.240000e+00 0.000000e+00 0.000000e+00
2.250000e+00 0.000000e+00 0.000000e+00
2.260000e+00 0.000000e+00 0.000000e+00
2.270000e+00 0.000000e+00 0.000000e+00
2.280000e+00 0.000000e+00 0.000000e+00
2.290000e+00 0.000000e+00 0.000000e+00
2.300000e+00 0.000000e+00 0.000000e+00
2.310000e+00 0.000000e+00 0.000000e+00
2.320000e+00 0.000000e+00 0.000000e+00
2.330000e+00 0.000000e+00 0.000000e+00
2.340000e+00 0.000000e+00 0.000000e+00
2.350000e+00 0.000000e+00 0.000000e+00
2.360000e+00 0.000000e+00 0.000000e+00
2.370000e+00 0.000000e+00 0.000000e+00
2.380000e+00 0.000000e+00 0.000000e+00
2.390000e+00 0.000000e+00 0.000000e+00
2.400000e+00 0.000000e+00 0.000000e+00
2.410000e+00 0.000000e+00 0.000000e+00
2.420000e+00 0.000000e+00 0.000000e+00
2.430000e+00 0.000000e+00 0.000000e+00
2.440000e+00 0.000000e+00 0.000000e+00
2.450000e+00 0.000000e+00 0.000000e+00
2.460000e+00 0.000000e+00 0.000000e+00
2.470000e+00 0.000000e+00 0.000000e+00
2.480000e+00 0.000000e+00 0.000000e+00
2.490000e+00 0.000000e+00 0.000000e+00
2.500000e+00 0.000000e+00 0.000000e+00
2.510000e+00 0.000000e+00 0.000000e+00
2.520000e+00 0.000000e+00 0.000000e+00
2.530000e+00 0.000000e+00 0.000000e+00
[...]
POINT_DATA 501
SCALARS vm float 1
LOOKUP_TABLE default
-7.585082e+01
-7.585070e+01
-7.585044e+01
-7.585005e+01
-7.584954e+01
-7.584886e+01
-7.584810e+01
-7.584723e+01
-7.584623e+01
-7.584512e+01
-7.584390e+01
-7.584255e+01
-7.584109e+01
-7.583952e+01
-7.583784e+01
-7.583604e+01
-7.583413e+01
-7.583211e+01
-7.582998e+01
-7.582774e+01
-7.582540e+01
-7.582294e+01
-7.582038e+01
-7.581771e+01
-7.581493e+01
-7.581205e+01
-7.580906e+01
-7.580597e+01
-7.580278e+01
-7.579948e+01
-7.579608e+01
-7.579258e+01
-7.578897e+01
-7.578527e+01
-7.578146e+01
-7.577756e+01
-7.577355e+01
-7.576944e+01
-7.576524e+01
-7.576094e+01
-7.575654e+01
-7.575204e+01
-7.574744e+01
-7.574275e+01
-7.573796e+01
-7.573308e+01
-7.572810e+01
-7.572302e+01
-7.571786e+01
-7.571259e+01
-7.570724e+01
-7.570178e+01
-7.569624e+01
-7.569061e+01
-7.568488e+01
-7.567906e+01
-7.567315e+01
-7.566714e+01
-7.566105e+01
-7.565487e+01
-7.564859e+01
-7.564223e+01
-7.563578e+01
-7.562924e+01
-7.562261e+01
-7.561589e+01
-7.560908e+01
-7.560219e+01
-7.559521e+01
-7.558814e+01
-7.558099e+01
-7.557375e+01
-7.556643e+01
-7.555902e+01
-7.555152e+01
-7.554395e+01
-7.553628e+01
-7.552854e+01
-7.552070e+01
-7.551279e+01
-7.550480e+01
-7.549672e+01
-7.548856e+01
-7.548031e+01
-7.547199e+01
-7.546359e+01
-7.545510e+01
-7.544654e+01
-7.543789e+01
-7.542917e+01
-7.542037e+01
-7.541148e+01
-7.540252e+01
-7.539349e+01
-7.538437e+01
-7.537518e+01
-7.536591e+01
-7.535656e+01
-7.534714e+01
-7.533764e+01
-7.532807e+01
-7.531842e+01
-7.530869e+01
-7.529890e+01
-7.528903e+01
-7.527908e+01
-7.526906e+01
-7.525897e+01
-7.524881e+01
-7.523857e+01
-7.522827e+01
-7.521789e+01
-7.520744e+01
-7.519692e+01
-7.518633e+01
-7.517568e+01
-7.516495e+01
-7.515415e+01
-7.514329e+01
-7.513235e+01
-7.512135e+01
-7.511029e+01
-7.509915e+01
-7.508795e+01
-7.507668e+01
-7.506535e+01
-7.505395e+01
-7.504249e+01
-7.503096e+01
-7.501937e+01
-7.500771e+01
-7.499600e+01
-7.498421e+01
-7.497237e+01
-7.496047e+01
-7.494850e+01
-7.493647e+01
-7.492438e+01
-7.491223e+01
-7.490002e+01
-7.488776e+01
-7.487543e+01
-7.486304e+01
-7.485060e+01
-7.483810e+01
-7.482554e+01
-7.481292e+01
-7.480025e+01
-7.478752e+01
-7.477474e+01
-7.476190e+01
-7.474901e+01
-7.473606e+01
-7.472306e+01
-7.471000e+01
-7.469690e+01
-7.468374e+01
-7.467053e+01
-7.465726e+01
-7.464395e+01
-7.463058e+01
-7.461717e+01
-7.460370e+01
-7.459019e+01
-7.457663e+01
-7.456302e+01
-7.454936e+01
-7.453565e+01
-7.452190e+01
-7.450810e+01
-7.449426e+01
-7.448037e+01
-7.446643e+01
-7.445245e+01
-7.443843e+01
-7.442436e+01
-7.441025e+01
-7.439610e+01
-7.438190e+01
-7.436767e+01
-7.435339e+01
-7.433907e+01
-7.432471e+01
-7.431031e+01
-7.429587e+01
-7.428140e+01
-7.426688e+01
-7.425233e+01
-7.423774e+01
-7.422312e+01
-7.420846e+01
-7.419376e+01
-7.417903e+01
-7.416426e+01
-7.414946e+01
-7.413462e+01
-7.411975e+01
-7.410485e+01
-7.408992e+01
-7.407496e+01
-7.405996e+01
-7.404493e+01
-7.402988e+01
-7.401479e+01
-7.399968e+01
-7.398454e+01
-7.396936e+01
-7.395417e+01
-7.393894e+01
-7.392369e+01
-7.390841e+01
-7.389311e+01
-7.387778e+01
-7.386243e+01
-7.384705e+01
-7.383166e+01
-7.381623e+01
-7.380079e+01
-7.378533e+01
-7.376984e+01
-7.375434e+01
-7.373881e+01
-7.372326e+01
-7.370770e+01
-7.369212e+01
-7.367652e+01
-7.366090e+01
-7.364526e+01
-7.362961e+01
-7.361395e+01
-7.359827e+01
-7.358257e+01
-7.356686e+01
-7.355114e+01
-7.353541e+01
-7.351966e+01
-7.350390e+01
-7.348813e+01
-7.347235e+01
-7.345656e+01
-7.344076e+01
-7.342495e+01
-7.340914e+01
-7.339331e+01
-7.337748e+01
-7.336164e+01
-7.334580e+01
-7.332995e+01
-7.331409e+01
-7.329824e+01
-7.328237e+01
-7.326651e+01
-7.325064e+01
-7.323477e+01
-7.321890e+01
-7.320303e+01
-7.318716e+01
-7.317128e+01
-7.315541e+01
-7.313954e+01
-7.312368e+01
-7.310781e+01
-7.309195e+01
-7.307609e+01
-7.306024e+01
-7.304439e+01
-7.302855e+01
-7.301271e+01
-7.299688e+01
-7.298106e+01
-7.296525e+01
-7.294944e+01
-7.293364e+01
-7.291786e+01
-7.290208e+01
-7.288631e+01
-7.287056e+01
-7.285482e+01
-7.283908e+01
-7.282337e+01
-7.280766e+01
-7.279197e+01
-7.277630e+01
-7.276064e+01
-7.274500e+01
-7.272938e+01
-7.271377e+01
-7.269818e+01
-7.268260e+01
-7.266705e+01
-7.265152e+01
-7.263601e+01
-7.262051e+01
-7.260504e+01
-7.258959e+01
-7.257417e+01
-7.255876e+01
-7.254338e+01
-7.252803e+01
-7.251270e+01
-7.249740e+01
-7.248212e+01
-7.246687e+01
-7.245164e+01
-7.243645e+01
-7.242128e+01
-7.240614e+01
-7.239103e+01
-7.237595e+01
-7.236091e+01
-7.234589e+01
-7.233090e+01
-7.231595e+01
-7.230103e+01
-7.228615e+01
-7.227130e+01
-7.225648e+01
-7.224170e+01
-7.222696e+01
-7.221225e+01
-7.219758e+01
-7.218295e+01
-7.216836e+01
-7.215380e+01
-7.213929e+01
-7.212481e+01
-7.211038e+01
-7.209599e+01
-7.208164e+01
-7.206733e+01
-7.205306e+01
-7.203884e+01
-7.202466e+01
-7.201053e+01
-7.199644e+01
-7.198240e+01
-7.196841e+01
-7.195446e+01
-7.194056e+01
-7.192671e+01
-7.191290e+01
-7.189915e+01
-7.188545e+01
-7.187179e+01
-7.185819e+01
-7.184464e+01
-7.183114e+01
-7.181769e+01
-7.180430e+01
-7.179096e+01
-7.177768e+01
-7.176444e+01
-7.175127e+01
-7.173815e+01
-7.172509e+01
-7.171209e+01
-7.169914e+01
-7.168625e+01
-7.167342e+01
-7.166065e+01
-7.164794e+01
-7.163529e+01
-7.162270e+01
-7.161017e+01
-7.159770e+01
-7.158530e+01
-7.157296e+01
-7.156068e+01
-7.154847e+01
-7.153632e+01
-7.152424e+01
-7.151222e+01
-7.150027e+01
-7.148838e+01
-7.147657e+01
-7.146482e+01
-7.145313e+01
-7.144152e+01
-7.142998e+01
-7.141851e+01
-7.140710e+01
-7.139577e+01
-7.138451e+01
-7.137332e+01
-7.136220e+01
-7.135116e+01
-7.134019e+01
-7.132929e+01
-7.131847e+01
-7.130772e+01
-7.129705e+01
-7.128646e+01
-7.127594e+01
-7.126549e+01
-7.125513e+01
-7.124484e+01
-7.123463e+01
-7.122450e+01
-7.121444e+01
-7.120447e+01
-7.119458e+01
-7.118477e+01
-7.117503e+01
-7.116538e+01
-7.115582e+01
-7.114633e+01
-7.113693e+01
-7.112761e+01
-7.111837e+01
-7.110922e+01
-7.110015e+01
-7.109117e+01
-7.108227e+01
-7.107346e+01
-7.106474e+01
-7.105610e+01
-7.104755e+01
-7.103908e+01
-7.103071e+01
-7.102242e+01
-7.101422e+01
-7.100611e+01
-7.099809e+01
-7.099017e+01
-7.098233e+01
-7.097458e+01
-7.096692e+01
-7.095936e+01
-7.095188e+01
-7.094450e+01
-7.093721e+01
-7.093002e+01
-7.092292e+01
-7.091591e+01
-7.090899e+01
-7.090217e+01
-7.089545e+01
-7.088882e+01
-7.088229e+01
-7.087585e+01
-7.086951e+01
-7.086327e+01
-7.085712e+01
-7.085107e+01
-7.084512e+01
-7.083926e+01
-7.083350e+01
-7.082785e+01
-7.082229e+01
-7.081683e+01
-7.081147e+01
-7.080621e+01
-7.080105e+01
-7.079599e+01
-7.079103e+01
-7.078617e+01
-7.078141e+01
-7.077675e+01
-7.077220e+01
-7.076775e+01
-7.076340e+01
-7.075915e+01
-7.075501e+01
-7.075096e+01
-7.074702e+01
-7.074319e+01
-7.073946e+01
-7.073583e+01
-7.073230e+01
-7.072888e+01
-7.072556e+01
-7.072235e+01
-7.071925e+01
-7.071624e+01
-7.071335e+01
-7.071055e+01
-7.070786e+01
-7.070528e+01
-7.070280e+01
-7.070043e+01
-7.069817e+01
-7.069601e+01
-7.069395e+01
-7.069201e+01
-7.069016e+01
-7.068843e+01
-7.068680e+01
-7.068528e+01
-7.068386e+01
-7.068255e+01
-7.068135e+01
-7.068026e+01
-7.067927e+01
-7.067839e+01
-7.067762e+01
-7.067696e+01
-7.067641e+01
-7.067597e+01
-7.067563e+01
-7.067541e+01
-7.067530e+01
