# vtk DataFile Version 3.0
Monodomain MVF
ASCII
DATASET POLYDATA
POINTS 501 float
0.000000e+00 0.000000e+00 0.000000e+00
1.000000e-02 0.000000e+00 0.000000e+00
2.000000e-02 0.000000e+00 0.000000e+00
3.000000e-02 0.000000e+00 0.000000e+00
4.000000e-02 0.000000e+00 0.000000e+00
5.000000e-02 0.000000e+00 0.000000e+00
6.000000e-02 0.000000e+00 0.000000e+00
7.000000e-02 0.000000e+00 0.000000e+00
8.000000e-02 0.000000e+00 0.000000e+00
9.000000e-02 0.000000e+00 0.000000e+00
1.000000e-01 0.000000e+00 0.000000e+00
1.100000e-01 0.000000e+00 0.000000e+00
1.200000e-01 0.000000e+00 0.000000e+00
1.300000e-01 0.000000e+00 0.000000e+00
1.400000e-01 0.000000e+00 0.000000e+00
1.500000e-01 0.000000e+00 0.000000e+00
1.600000e-01 0.000000e+00 0.000000e+00
1.700000e-01 0.000000e+00 0.000000e+00
1.800000e-01 0.000000e+00 0.000000e+00
1.900000e-01 0.000000e+00 0.000000e+00
2.000000e-01 0.000000e+00 0.000000e+00
2.100000e-01 0.000000e+00 0.000000e+00
2.200000e-01 0.000000e+00 0.000000e+00
2.300000e-01 0.000000e+00 0.000000e+00
2.400000e-01 0.000000e+00 0.000000e+00
2.500000e-01 0.000000e+00 0.000000e+00
2.600000e-01 0.000000e+00 0.000000e+00
2.700000e-01 0.000000e+00 0.000000e+00
2.800000e-01 0.000000e+00 0.000000e+00
2.900000e-01 0.000000e+00 0.000000e+00
3.000000e-01 0.000000e+00 0.000000e+00
3.100000e-01 0.000000e+00 0.000000e+00
3.200000e-01 0.000000e+00 0.000000e+00
3.300000e-01 0.000000e+00 0.000000e+00
3.400000e-01 0.000000e+00 0.000000e+00
3.500000e-01 0.000000e+00 0.000000e+00
3.600000e-01 0.000000e+00 0.000000e+00
3.700000e-01 0.000000e+00 0.000000e+00
3.800000e-01 0.000000e+00 0.000000e+00
3.900000e-01 0.000000e+00 0.000000e+00
4.000000e-01 0.000000e+00 0.000000e+00
4.100000e-01 0.000000e+00 0.000000e+00
4.200000e-01 0.000000e+00 0.000000e+00
4.300000e-01 0.000000e+00 0.000000e+00
4.400000e-01 0.000000e+00 0.000000e+00
4.500000e-01 0.000000e+00 0.000000e+00
4.600000e-01 0.000000e+00 0.000000e+00
4.700000e-01 0.000000e+00 0.000000e+00
4.800000e-01 0.000000e+00 0.000000e+00
4.900000e-01 0.000000e+00 0.000000e+00
5.000000e-01 0.000000e+00 0.000000e+00
5.100000e-01 0.000000e+00 0.000000e+00
5.200000e-01 0.000000e+00 0.000000e+00
5.300000e-01 0.000000e+00 0.000000e+00
5.400000e-01 0.000000e+00 0.000000e+00
5.500000e-01 0.000000e+00 0.000000e+00
5.600000e-01 0.000000e+00 0.000000e+00
5.700000e-01 0.000000e+00 0.000000e+00
5.800000e-01 0.000000e+00 0.000000e+00
5.900000e-01 0.000000e+00 0.000000e+00
6.000000e-01 0.000000e+00 0.000000e+00
6.100000e-01 0.000000e+00 0.000000e+00
6.200000e-01 0.000000e+00 0.000000e+00
6.300000e-01 0.000000e+00 0.000000e+00
6.400000e-01 0.000000e+00 0.000000e+00
6.500000e-01 0.000000e+00 0.000000e+00
6.600000e-01 0.000000e+00 0.000000e+00
6.700000e-01 0.000000e+00 0.000000e+00
6.800000e-01 0.000000e+00 0.000000e+00
6.900000e-01 0.000000e+00 0.000000e+00
7.000000e-01 0.000000e+00 0.000000e+00
7.100000e-01 0.000000e+00 0.000000e+00
7.200000e-01 0.000000e+00 0.000000e+00
7.300000e-01 0.000000e+00 0.000000e+00
7.400000e-01 0.000000e+00 0.000000e+00
7.500000e-01 0.000000e+00 0.000000e+00
7.600000e-01 0.000000e+00 0.000000e+00
7.700000e-01 0.000000e+00 0.000000e+00
7.800000e-01 0.000000e+00 0.000000e+00
7.900000e-01 0.000000e+00 0.000000e+00
8.000000e-01 0.000000e+00 0.000000e+00
8.100000e-01 0.000000e+00 0.000000e+00
8.200000e-01 0.000000e+00 0.000000e+00
8.300000e-01 0.000000e+00 0.000000e+00
8.400000e-01 0.000000e+00 0.000000e+00
8.500000e-01 0.000000e+00 0.000000e+00
8.600000e-01 0.000000e+00 0.000000e+00
8.700000e-01 0.000000e+00 0.000000e+00
8.800000e-01 0.000000e+00 0.000000e+00
8.900000e-01 0.000000e+00 0.000000e+00
9.000000e-01 0.000000e+00 0.000000e+00
9.100000e-01 0.000000e+00 0.000000e+00
9.200000e-01 0.000000e+00 0.000000e+00
9.300000e-01 0.000000e+00 0.000000e+00
9.400000e-01 0.000000e+00 0.000000e+00
9.500000e-01 0.000000e+00 0.000000e+00
9.600000e-01 0.000000e+00 0.000000e+00
9.700000e-01 0.000000e+00 0.000000e+00
9.800000e-01 0.000000e+00 0.000000e+00
9.900000e-01 0.000000e+00 0.000000e+00
1.000000e+00 0.000000e+00 0.000000e+00
1.010000e+00 0.000000e+00 0.000000e+00
1.020000e+00 0.000000e+00 0.000000e+00
1.030000e+00 0.000000e+00 0.000000e+00
1.040000e+00 0.000000e+00 0.000000e+00
1.050000e+00 0.000000e+00 0.000000e+00
1.060000e+00 0.000000e+00 0.000000e+00
1.070000e+00 0.000000e+00 0.000000e+00
1.080000e+00 0.000000e+00 0.000000e+00
1.090000e+00 0.000000e+00 0.000000e+00
1.100000e+00 0.000000e+00 0.000000e+00
1.110000e+00 0.000000e+00 0.000000e+00
1.120000e+00 0.000000e+00 0.000000e+00
1.130000e+00 0.000000e+00 0.000000e+00
1.140000e+00 0.000000e+00 0.000000e+00
1.150000e+00 0.000000e+00 0.000000e+00
1.160000e+00 0.000000e+00 0.000000e+00
1.170000e+00 0.000000e+00 0.000000e+00
1.180000e+00 0.000000e+00 0.000000e+00
1.190000e+00 0.000000e+00 0.000000e+00
1.200000e+00 0.000000e+00 0.000000e+00
1.210000e+00 0.000000e+00 0.000000e+00
1.220000e+00 0.000000e+00 0.000000e+00
1.230000e+00 0.000000e+00 0.000000e+00
1.240000e+00 0.000000e+00 0.000000e+00
1.250000e+00 0.000000e+00 0.000000e+00
1.260000e+00 0.000000e+00 0.000000e+00
1.270000e+00 0.000000e+00 0.000000e+00
1.280000e+00 0.000000e+00 0.000000e+00
1.290000e+00 0.000000e+00 0.000000e+00
1.300000e+00 0.000000e+00 0.000000e+00
1.310000e+00 0.000000e+00 0.000000e+00
1.320000e+00 0.000000e+00 0.000000e+00
1.330000e+00 0.000000e+00 0.000000e+00
1.340000e+00 0.000000e+00 0.000000e+00
1.350000e+00 0.000000e+00 0.000000e+00
1.360000e+00 0.000000e+00 0.000000e+00
1.370000e+00 0.000000e+00 0.000000e+00
1.380000e+00 0.000000e+00 0.000000e+00
1.390000e+00 0.000000e+00 0.000000e+00
1.400000e+00 0.000000e+00 0.000000e+00
1.410000e+00 0.000000e+00 0.000000e+00
1.420000e+00 0.000000e+00 0.000000e+00
1.430000e+00 0.000000e+00 0.000000e+00
1.440000e+00 0.000000e+00 0.000000e+00
1.450000e+00 0.000000e+00 0.000000e+00
1.460000e+00 0.000000e+00 0.000000e+00
1.470000e+00 0.000000e+00 0.000000e+00
1.480000e+00 0.000000e+00 0.000000e+00
1.490000e+00 0.000000e+00 0.000000e+00
1.500000e+00 0.000000e+00 0.000000e+00
1.510000e+00 0.000000e+00 0.000000e+00
1.520000e+00 0.000000e+00 0.000000e+00
1.530000e+00 0.000000e+00 0.000000e+00
1.540000e+00 0.000000e+00 0.000000e+00
1.550000e+00 0.000000e+00 0.000000e+00
1.560000e+00 0.000000e+00 0.000000e+00
1.570000e+00 0.000000e+00 0.000000e+00
1.580000e+00 0.000000e+00 0.000000e+00
1.590000e+00 0.000000e+00 0.000000e+00
1.600000e+00 0.000000e+00 0.000000e+00
1.610000e+00 0.000000e+00 0.000000e+00
1.620000e+00 0.000000e+00 0.000000e+00
1.630000e+00 0.000000e+00 0.000000e+00
1.640000e+00 0.000000e+00 0.000000e+00
1.650000e+00 0.000000e+00 0.000000e+00
1.660000e+00 0.000000e+00 0.000000e+00
1.670000e+00 0.000000e+00 0.000000e+00
1.680000e+00 0.000000e+00 0.000000e+00
1.690000e+00 0.000000e+00 0.000000e+00
1.700000e+00 0.000000e+00 0.000000e+00
1.710000e+00 0.000000e+00 0.000000e+00
1.720000e+00 0.000000e+00 0.000000e+00
1.730000e+00 0.000000e+00 0.000000e+00
1.740000e+00 0.000000e+00 0.000000e+00
1.750000e+00 0.000000e+00 0.000000e+00
1.760000e+00 0.000000e+00 0.000000e+00
1.770000e+00 0.000000e+00 0.000000e+00
1.780000e+00 0.000000e+00 0.000000e+00
1.790000e+00 0.000000e+00 0.000000e+00
1.800000e+00 0.000000e+00 0.000000e+00
1.810000e+00 0.000000e+00 0.000000e+00
1.820000e+00 0.000000e+00 0.000000e+00
1.830000e+00 0.000000e+00 0.000000e+00
1.840000e+00 0.000000e+00 0.000000e+00
1.850000e+00 0.000000e+00 0.000000e+00
1.860000e+00 0.000000e+00 0.000000e+00
1.870000e+00 0.000000e+00 0.000000e+00
1.880000e+00 0.000000e+00 0.000000e+00
1.890000e+00 0.000000e+00 0.000000e+00
1.900000e+00 0.000000e+00 0.000000e+00
1.910000e+00 0.000000e+00 0.000000e+00
1.920000e+00 0.000000e+00 0.000000e+00
1.930000e+00 0.000000e+00 0.000000e+00
1.940000e+00 0.000000e+00 0.000000e+00
1.950000e+00 0.000000e+00 0.000000e+00
1.960000e+00 0.000000e+00 0.000000e+00
1.970000e+00 0.000000e+00 0.000000e+00
1.980000e+00 0.000000e+00 0.000000e+00
1.990000e+00 0.000000e+00 0.000000e+00
2.000000e+00 0.000000e+00 0.000000e+00
2.010000e+00 0.000000e+00 0.000000e+00
2.020000e+00 0.000000e+00 0.000000e+00
2.030000e+00 0.000000e+00 0.000000e+00
2.040000e+00 0.000000e+00 0.000000e+00
2.050000e+00 0.000000e+00 0.000000e+00
2.060000e+00 0.000000e+00 0.000000e+00
2.070000e+00 0.000000e+00 0.000000e+00
2.080000e+00 0.000000e+00 0.000000e+00
2.090000e+00 0.000000e+00 0.000000e+00
2.100000e+00 0.000000e+00 0.000000e+00
2.110000e+00 0.000000e+00 0.000000e+00
2.120000e+00 0.000000e+00 0.000000e+00
2.130000e+00 0.000000e+00 0.000000e+00
2.140000e+00 0.000000e+00 0.000000e+00
2.150000e+00 0.000000e+00 0.000000e+00
2.160000e+00 0.000000e+00 0.000000e+00
2.170000e+00 0.000000e+00 0.000000e+00
2.180000e+00 0.000000e+00 0.000000e+00
2.190000e+00 0.000000e+00 0.000000e+00
2.200000e+00 0.000000e+00 0.000000e+00
2.210000e+00 0.000000e+00 0.000000e+00
2.220000e+00 0.000000e+00 0.000000e+00
2.230000e+00 0.000000e+00 0.000000e+00
2.240000e+00 0.000000e+00 0.000000e+00
2.250000e+00 0.000000e+00 0.000000e+00
2.260000e+00 0.000000e+00 0.000000e+00
2.270000e+00 0.000000e+00 0.000000e+00
2.280000e+00 0.000000e+00 0.000000e+00
2.290000e+00 0.000000e+00 0.000000e+00
2.300000e+00 0.000000e+00 0.000000e+00
2.310000e+00 0.000000e+00 0.000000e+00
2.320000e+00 0.000000e+00 0.000000e+00
2.330000e+00 0.000000e+00 0.000000e+00
2.340000e+00 0.000000e+00 0.000000e+00
2.350000e+00 0.000000e+00 0.000000e+00
2.360000e+00 0.000000e+00 0.000000e+00
2.370000e+00 0.000000e+00 0.000000e+00
2.380000e+00 0.000000e+00 0.000000e+00
2.390000e+00 0.000000e+00 0.000000e+00
2.400000e+00 0.000000e+00 0.000000e+00
2.410000e+00 0.000000e+00 0.000000e+00
2.420000e+00 0.000000e+00 0.000000e+00
2.430000e+00 0.000000e+00 0.000000e+00
2.440000e+00 0.000000e+00 0.000000e+00
2.450000e+00 0.000000e+00 0.000000e+00
2.460000e+00 0.000000e+00 0.000000e+00
2.470000e+00 0.000000e+00 0.000000e+00
2.480000e+00 0.000000e+00 0.000000e+00
2.490000e+00 0.000000e+00 0.000000e+00
2.500000e+00 0.000000e+00 0.000000e+00
2.510000e+00 0.000000e+00 0.000000e+00
2.520000e+00 0.000000e+00 0.000000e+00
2.530000e+00 0.000000e+00 0.000000e+00
[...]
POINT_DATA 501
SCALARS vm float 1
LOOKUP_TABLE default
-1.045414e+01
-1.045390e+01
-1.045342e+01
-1.045271e+01
-1.045177e+01
-1.045060e+01
-1.044926e+01
-1.044776e+01
-1.044609e+01
-1.044427e+01
-1.044230e+01
-1.044018e+01
-1.043793e+01
-1.043555e+01
-1.043303e+01
-1.043041e+01
-1.042766e+01
-1.042481e+01
-1.042184e+01
-1.041878e+01
-1.041562e+01
-1.041237e+01
-1.040903e+01
-1.040561e+01
-1.040210e+01
-1.039852e+01
-1.039486e+01
-1.039113e+01
-1.038733e+01
-1.038347e+01
-1.037955e+01
-1.037557e+01
-1.037153e+01
-1.036744e+01
-1.036329e+01
-1.035910e+01
-1.035486e+01
-1.035057e+01
-1.034624e+01
-1.034187e+01
-1.033746e+01
-1.033301e+01
-1.032853e+01
-1.032401e+01
-1.031947e+01
-1.031489e+01
-1.031028e+01
-1.030564e+01
-1.030098e+01
-1.029629e+01
-1.029157e+01
-1.028684e+01
-1.028208e+01
-1.027730e+01
-1.027250e+01
-1.026768e+01
-1.026284e+01
-1.025799e+01
-1.025312e+01
-1.024823e+01
-1.024333e+01
-1.023842e+01
-1.023349e+01
-1.022855e+01
-1.022360e+01
-1.021863e+01
-1.021366e+01
-1.020867e+01
-1.020368e+01
-1.019867e+01
-1.019366e+01
-1.018864e+01
-1.018361e+01
-1.017858e+01
-1.017354e+01
-1.016849e+01
-1.016343e+01
-1.015838e+01
-1.015331e+01
-1.014824e+01
-1.014316e+01
-1.013808e+01
-1.013300e+01
-1.012791e+01
-1.012282e+01
-1.011773e+01
-1.011263e+01
-1.010753e+01
-1.010243e+01
-1.009732e+01
-1.009221e+01
-1.008710e+01
-1.008199e+01
-1.007688e+01
-1.007176e+01
-1.006664e+01
-1.006153e+01
-1.005641e+01
-1.005129e+01
-1.004617e+01
-1.004104e+01
-1.003592e+01
-1.003080e+01
-1.002567e+01
-1.002055e+01
-1.001542e+01
-1.001030e+01
-1.000517e+01
-1.000005e+01
-9.994924e+00
-9.989797e+00
-9.984671e+00
-9.979548e+00
-9.974421e+00
-9.969296e+00
-9.964172e+00
-9.959048e+00
-9.953926e+00
-9.948801e+00
-9.943678e+00
-9.938558e+00
-9.933434e+00
-9.928312e+00
-9.923193e+00
-9.918072e+00
-9.912954e+00
-9.907835e+00
-9.902716e+00
-9.897601e+00
-9.892483e+00
-9.887366e+00
-9.882252e+00
-9.877137e+00
-9.872023e+00
-9.866911e+00
-9.861798e+00
-9.856689e+00
-9.851576e+00
-9.846466e+00
-9.841359e+00
-9.836249e+00
-9.831141e+00
-9.826036e+00
-9.820929e+00
-9.815826e+00
-9.810720e+00
-9.805616e+00
-9.800516e+00
-9.795412e+00
-9.790310e+00
-9.785211e+00
-9.780111e+00
-9.775013e+00
-9.769914e+00
-9.764817e+00
-9.759723e+00
-9.754625e+00
-9.749530e+00
-9.744437e+00
-9.739343e+00
-9.734249e+00
-9.729158e+00
-9.724066e+00
-9.718978e+00
-9.713886e+00
-9.708797e+00
-9.703710e+00
-9.698621e+00
-9.693533e+00
-9.688448e+00
-9.683362e+00
-9.678278e+00
-9.673192e+00
-9.668108e+00
-9.663027e+00
-9.657942e+00
-9.652860e+00
-9.647780e+00
-9.642698e+00
-9.637619e+00
-9.632538e+00
-9.627458e+00
-9.622382e+00
-9.617302e+00
-9.612224e+00
-9.607149e+00
-9.602071e+00
-9.596994e+00
-9.591919e+00
-9.586844e+00
-9.581771e+00
-9.576695e+00
-9.571621e+00
-9.566549e+00
-9.561475e+00
-9.556402e+00
-9.551331e+00
-9.546258e+00
-9.541188e+00
-9.536116e+00
-9.531045e+00
-9.525978e+00
-9.520906e+00
-9.515836e+00
-9.510768e+00
-9.505698e+00
-9.500631e+00
-9.495562e+00
-9.490494e+00
-9.485428e+00
-9.480359e+00
-9.475291e+00
-9.470227e+00
-9.465159e+00
-9.460092e+00
-9.455027e+00
-9.449961e+00
-9.444898e+00
-9.439831e+00
-9.434765e+00
-9.429703e+00
-9.424636e+00
-9.419571e+00
-9.414508e+00
-9.409444e+00
-9.404381e+00
-9.399317e+00
-9.394253e+00
-9.389192e+00
-9.384127e+00
-9.379064e+00
-9.374003e+00
-9.368939e+00
-9.363877e+00
-9.358815e+00
-9.353752e+00
-9.348692e+00
-9.343629e+00
-9.338566e+00
-9.333507e+00
-9.328444e+00
-9.323382e+00
-9.318322e+00
-9.313260e+00
-9.308201e+00
-9.303139e+00
-9.298077e+00
-9.293019e+00
-9.287957e+00
-9.282895e+00
-9.277836e+00
-9.272775e+00
-9.267716e+00
-9.262655e+00
-9.257595e+00
-9.252537e+00
-9.247476e+00
-9.242415e+00
-9.237357e+00
-9.232297e+00
-9.227237e+00
-9.222178e+00
-9.217119e+00
-9.212062e+00
-9.207001e+00
-9.201941e+00
-9.196884e+00
-9.191824e+00
-9.186765e+00
-9.181707e+00
-9.176648e+00
-9.171592e+00
-9.166532e+00
-9.161474e+00
-9.156418e+00
-9.151359e+00
-9.146300e+00
-9.141244e+00
-9.136186e+00
-9.131130e+00
-9.126072e+00
-9.121015e+00
-9.115961e+00
-9.110902e+00
-9.105845e+00
-9.100791e+00
-9.095734e+00
-9.090678e+00
-9.085624e+00
-9.080568e+00
-9.075516e+00
-9.070459e+00
-9.065404e+00
-9.060353e+00
-9.055298e+00
-9.050243e+00
-9.045192e+00
-9.040139e+00
-9.035088e+00
-9.030035e+00
-9.024983e+00
-9.019934e+00
-9.014882e+00
-9.009831e+00
-9.004783e+00
-8.999733e+00
-8.994685e+00
-8.989636e+00
-8.984588e+00
-8.979543e+00
-8.974495e+00
-8.969448e+00
-8.964405e+00
-8.959359e+00
-8.954315e+00
-8.949272e+00
-8.944230e+00
-8.939190e+00
-8.934147e+00
-8.929106e+00
-8.924069e+00
-8.919029e+00
-8.913991e+00
-8.908955e+00
-8.903920e+00
-8.898886e+00
-8.893851e+00
-8.888819e+00
-8.883790e+00
-8.878758e+00
-8.873728e+00
-8.868702e+00
-8.863675e+00
-8.858651e+00
-8.853626e+00
-8.848603e+00
-8.843585e+00
-8.838564e+00
-8.833545e+00
-8.828531e+00
-8.823515e+00
-8.818502e+00
-8.813492e+00
-8.808483e+00
-8.803477e+00
-8.798470e+00
-8.793467e+00
-8.788468e+00
-8.783468e+00
-8.778470e+00
-8.773477e+00
-8.768485e+00
-8.763497e+00
-8.758509e+00
-8.753524e+00
-8.748545e+00
-8.743564e+00
-8.738588e+00
-8.733617e+00
-8.728646e+00
-8.723680e+00
-8.718716e+00
-8.713756e+00
-8.708802e+00
-8.703847e+00
-8.698897e+00
-8.693954e+00
-8.689011e+00
-8.684073e+00
-8.679140e+00
-8.674211e+00
-8.669288e+00
-8.664367e+00
-8.659451e+00
-8.654542e+00
-8.649635e+00
-8.644734e+00
-8.639840e+00
-8.634950e+00
-8.630067e+00
-8.625187e+00
-8.620314e+00
-8.615450e+00
-8.610588e+00
-8.605733e+00
-8.600887e+00
-8.596046e+00
-8.591214e+00
-8.586387e+00
-8.581568e+00
-8.576759e+00
-8.571954e+00
-8.567158e+00
-8.562373e+00
-8.557593e+00
-8.552823e+00
-8.548063e+00
-8.543311e+00
-8.538571e+00
-8.533837e+00
-8.529115e+00
-8.524406e+00
-8.519703e+00
-8.515012e+00
-8.510334e+00
-8.505666e+00
-8.501012e+00
-8.496367e+00
-8.491736e+00
-8.487120e+00
-8.482513e+00
-8.477921e+00
-8.473345e+00
-8.468780e+00
-8.464232e+00
-8.459698e+00
-8.455179e+00
-8.450678e+00
-8.446190e+00
-8.441720e+00
-8.437270e+00
-8.432833e+00
-8.428416e+00
-8.424018e+00
-8.419639e+00
-8.415280e+00
-8.410938e+00
-8.406619e+00
-8.402322e+00
-8.398044e+00
-8.393788e+00
-8.389557e+00
-8.385348e+00
-8.381164e+00
-8.377002e+00
-8.372867e+00
-8.368759e+00
-8.364674e+00
-8.360617e+00
-8.356590e+00
-8.352589e+00
-8.348618e+00
-8.344676e+00
-8.340765e+00
-8.336887e+00
-8.333038e+00
-8.329223e+00
-8.325444e+00
-8.321696e+00
-8.317983e+00
-8.314309e+00
-8.310671e+00
-8.307072e+00
-8.303509e+00
-8.299987e+00
-8.296508e+00
-8.293067e+00
-8.289670e+00
-8.286318e+00
-8.283009e+00
-8.279746e+00
-8.276529e+00
-8.273361e+00
-8.270243e+00
-8.267171e+00
-8.264152e+00
-8.261187e+00
-8.258274e+00
-8.255416e+00
-8.252613e+00
-8.249869e+00
-8.247184e+00
-8.244556e+00
-8.241990e+00
-8.239489e+00
-8.237049e+00
-8.234675e+00
-8.232370e+00
-8.230132e+00
-8.227965e+00
-8.225868e+00
-8.223846e+00
-8.221902e+00
-8.220030e+00
-8.218240e+00
-8.216532e+00
-8.214906e+00
-8.213366e+00
-8.211916e+00
-8.210557e+00
-8.209291e+00
-8.208121e+00
-8.207055e+00
-8.206089e+00
-8.205229e+00
-8.204484e+00
-8.203867e+00
-8.203366e+00
-8.202982e+00
-8.202720e+00
-8.202588e+00
