# vtk DataFile Version 3.0
Monodomain MVF
ASCII
DATASET POLYDATA
POINTS 501 float
0.000000e+00 0.000000e+00 0.000000e+00
1.000000e-02 0.000000e+00 0.000000e+00
2.000000e-02 0.000000e+00 0.000000e+00
3.000000e-02 0.000000e+00 0.000000e+00
4.000000e-02 0.000000e+00 0.000000e+00
5.000000e-02 0.000000e+00 0.000000e+00
6.000000e-02 0.000000e+00 0.000000e+00
7.000000e-02 0.000000e+00 0.000000e+00
8.000000e-02 0.000000e+00 0.000000e+00
9.000000e-02 0.000000e+00 0.000000e+00
1.000000e-01 0.000000e+00 0.000000e+00
1.100000e-01 0.000000e+00 0.000000e+00
1.200000e-01 0.000000e+00 0.000000e+00
1.300000e-01 0.000000e+00 0.000000e+00
1.400000e-01 0.000000e+00 0.000000e+00
1.500000e-01 0.000000e+00 0.000000e+00
1.600000e-01 0.000000e+00 0.000000e+00
1.700000e-01 0.000000e+00 0.000000e+00
1.800000e-01 0.000000e+00 0.000000e+00
1.900000e-01 0.000000e+00 0.000000e+00
2.000000e-01 0.000000e+00 0.000000e+00
2.100000e-01 0.000000e+00 0.000000e+00
2.200000e-01 0.000000e+00 0.000000e+00
2.300000e-01 0.000000e+00 0.000000e+00
2.400000e-01 0.000000e+00 0.000000e+00
2.500000e-01 0.000000e+00 0.000000e+00
2.600000e-01 0.000000e+00 0.000000e+00
2.700000e-01 0.000000e+00 0.000000e+00
2.800000e-01 0.000000e+00 0.000000e+00
2.900000e-01 0.000000e+00 0.000000e+00
3.000000e-01 0.000000e+00 0.000000e+00
3.100000e-01 0.000000e+00 0.000000e+00
3.200000e-01 0.000000e+00 0.000000e+00
3.300000e-01 0.000000e+00 0.000000e+00
3.400000e-01 0.000000e+00 0.000000e+00
3.500000e-01 0.000000e+00 0.000000e+00
3.600000e-01 0.000000e+00 0.000000e+00
3.700000e-01 0.000000e+00 0.000000e+00
3.800000e-01 0.000000e+00 0.000000e+00
3.900000e-01 0.000000e+00 0.000000e+00
4.000000e-01 0.000000e+00 0.000000e+00
4.100000e-01 0.000000e+00 0.000000e+00
4.200000e-01 0.000000e+00 0.000000e+00
4.300000e-01 0.000000e+00 0.000000e+00
4.400000e-01 0.000000e+00 0.000000e+00
4.500000e-01 0.000000e+00 0.000000e+00
4.600000e-01 0.000000e+00 0.000000e+00
4.700000e-01 0.000000e+00 0.000000e+00
4.800000e-01 0.000000e+00 0.000000e+00
4.900000e-01 0.000000e+00 0.000000e+00
5.000000e-01 0.000000e+00 0.000000e+00
5.100000e-01 0.000000e+00 0.000000e+00
5.200000e-01 0.000000e+00 0.000000e+00
5.300000e-01 0.000000e+00 0.000000e+00
5.400000e-01 0.000000e+00 0.000000e+00
5.500000e-01 0.000000e+00 0.000000e+00
5.600000e-01 0.000000e+00 0.000000e+00
5.700000e-01 0.000000e+00 0.000000e+00
5.800000e-01 0.000000e+00 0.000000e+00
5.900000e-01 0.000000e+00 0.000000e+00
6.000000e-01 0.000000e+00 0.000000e+00
6.100000e-01 0.000000e+00 0.000000e+00
6.200000e-01 0.000000e+00 0.000000e+00
6.300000e-01 0.000000e+00 0.000000e+00
6.400000e-01 0.000000e+00 0.000000e+00
6.500000e-01 0.000000e+00 0.000000e+00
6.600000e-01 0.000000e+00 0.000000e+00
6.700000e-01 0.000000e+00 0.000000e+00
6.800000e-01 0.000000e+00 0.000000e+00
6.900000e-01 0.000000e+00 0.000000e+00
7.000000e-01 0.000000e+00 0.000000e+00
7.100000e-01 0.000000e+00 0.000000e+00
7.200000e-01 0.000000e+00 0.000000e+00
7.300000e-01 0.000000e+00 0.000000e+00
7.400000e-01 0.000000e+00 0.000000e+00
7.500000e-01 0.000000e+00 0.000000e+00
7.600000e-01 0.000000e+00 0.000000e+00
7.700000e-01 0.000000e+00 0.000000e+00
7.800000e-01 0.000000e+00 0.000000e+00
7.900000e-01 0.000000e+00 0.000000e+00
8.000000e-01 0.000000e+00 0.000000e+00
8.100000e-01 0.000000e+00 0.000000e+00
8.200000e-01 0.000000e+00 0.000000e+00
8.300000e-01 0.000000e+00 0.000000e+00
8.400000e-01 0.000000e+00 0.000000e+00
8.500000e-01 0.000000e+00 0.000000e+00
8.600000e-01 0.000000e+00 0.000000e+00
8.700000e-01 0.000000e+00 0.000000e+00
8.800000e-01 0.000000e+00 0.000000e+00
8.900000e-01 0.000000e+00 0.000000e+00
9.000000e-01 0.000000e+00 0.000000e+00
9.100000e-01 0.000000e+00 0.000000e+00
9.200000e-01 0.000000e+00 0.000000e+00
9.300000e-01 0.000000e+00 0.000000e+00
9.400000e-01 0.000000e+00 0.000000e+00
9.500000e-01 0.000000e+00 0.000000e+00
9.600000e-01 0.000000e+00 0.000000e+00
9.700000e-01 0.000000e+00 0.000000e+00
9.800000e-01 0.000000e+00 0.000000e+00
9.900000e-01 0.000000e+00 0.000000e+00
1.000000e+00 0.000000e+00 0.000000e+00
1.010000e+00 0.000000e+00 0.000000e+00
1.020000e+00 0.000000e+00 0.000000e+00
1.030000e+00 0.000000e+00 0.000000e+00
1.040000e+00 0.000000e+00 0.000000e+00
1.050000e+00 0.000000e+00 0.000000e+00
1.060000e+00 0.000000e+00 0.000000e+00
1.070000e+00 0.000000e+00 0.000000e+00
1.080000e+00 0.000000e+00 0.000000e+00
1.090000e+00 0.000000e+00 0.000000e+00
1.100000e+00 0.000000e+00 0.000000e+00
1.110000e+00 0.000000e+00 0.000000e+00
1.120000e+00 0.000000e+00 0.000000e+00
1.130000e+00 0.000000e+00 0.000000e+00
1.140000e+00 0.000000e+00 0.000000e+00
1.150000e+00 0.000000e+00 0.000000e+00
1.160000e+00 0.000000e+00 0.000000e+00
1.170000e+00 0.000000e+00 0.000000e+00
1.180000e+00 0.000000e+00 0.000000e+00
1.190000e+00 0.000000e+00 0.000000e+00
1.200000e+00 0.000000e+00 0.000000e+00
1.210000e+00 0.000000e+00 0.000000e+00
1.220000e+00 0.000000e+00 0.000000e+00
1.230000e+00 0.000000e+00 0.000000e+00
1.240000e+00 0.000000e+00 0.000000e+00
1.250000e+00 0.000000e+00 0.000000e+00
1.260000e+00 0.000000e+00 0.000000e+00
1.270000e+00 0.000000e+00 0.000000e+00
1.280000e+00 0.000000e+00 0.000000e+00
1.290000e+00 0.000000e+00 0.000000e+00
1.300000e+00 0.000000e+00 0.000000e+00
1.310000e+00 0.000000e+00 0.000000e+00
1.320000e+00 0.000000e+00 0.000000e+00
1.330000e+00 0.000000e+00 0.000000e+00
1.340000e+00 0.000000e+00 0.000000e+00
1.350000e+00 0.000000e+00 0.000000e+00
1.360000e+00 0.000000e+00 0.000000e+00
1.370000e+00 0.000000e+00 0.000000e+00
1.380000e+00 0.000000e+00 0.000000e+00
1.390000e+00 0.000000e+00 0.000000e+00
1.400000e+00 0.000000e+00 0.000000e+00
1.410000e+00 0.000000e+00 0.000000e+00
1.420000e+00 0.000000e+00 0.000000e+00
1.430000e+00 0.000000e+00 0.000000e+00
1.440000e+00 0.000000e+00 0.000000e+00
1.450000e+00 0.000000e+00 0.000000e+00
1.460000e+00 0.000000e+00 0.000000e+00
1.470000e+00 0.000000e+00 0.000000e+00
1.480000e+00 0.000000e+00 0.000000e+00
1.490000e+00 0.000000e+00 0.000000e+00
1.500000e+00 0.000000e+00 0.000000e+00
1.510000e+00 0.000000e+00 0.000000e+00
1.520000e+00 0.000000e+00 0.000000e+00
1.530000e+00 0.000000e+00 0.000000e+00
1.540000e+00 0.000000e+00 0.000000e+00
1.550000e+00 0.000000e+00 0.000000e+00
1.560000e+00 0.000000e+00 0.000000e+00
1.570000e+00 0.000000e+00 0.000000e+00
1.580000e+00 0.000000e+00 0.000000e+00
1.590000e+00 0.000000e+00 0.000000e+00
1.600000e+00 0.000000e+00 0.000000e+00
1.610000e+00 0.000000e+00 0.000000e+00
1.620000e+00 0.000000e+00 0.000000e+00
1.630000e+00 0.000000e+00 0.000000e+00
1.640000e+00 0.000000e+00 0.000000e+00
1.650000e+00 0.000000e+00 0.000000e+00
1.660000e+00 0.000000e+00 0.000000e+00
1.670000e+00 0.000000e+00 0.000000e+00
1.680000e+00 0.000000e+00 0.000000e+00
1.690000e+00 0.000000e+00 0.000000e+00
1.700000e+00 0.000000e+00 0.000000e+00
1.710000e+00 0.000000e+00 0.000000e+00
1.720000e+00 0.000000e+00 0.000000e+00
1.730000e+00 0.000000e+00 0.000000e+00
1.740000e+00 0.000000e+00 0.000000e+00
1.750000e+00 0.000000e+00 0.000000e+00
1.760000e+00 0.000000e+00 0.000000e+00
1.770000e+00 0.000000e+00 0.000000e+00
1.780000e+00 0.000000e+00 0.000000e+00
1.790000e+00 0.000000e+00 0.000000e+00
1.800000e+00 0.000000e+00 0.000000e+00
1.810000e+00 0.000000e+00 0.000000e+00
1.820000e+00 0.000000e+00 0.000000e+00
1.830000e+00 0.000000e+00 0.000000e+00
1.840000e+00 0.000000e+00 0.000000e+00
1.850000e+00 0.000000e+00 0.000000e+00
1.860000e+00 0.000000e+00 0.000000e+00
1.870000e+00 0.000000e+00 0.000000e+00
1.880000e+00 0.000000e+00 0.000000e+00
1.890000e+00 0.000000e+00 0.000000e+00
1.900000e+00 0.000000e+00 0.000000e+00
1.910000e+00 0.000000e+00 0.000000e+00
1.920000e+00 0.000000e+00 0.000000e+00
1.930000e+00 0.000000e+00 0.000000e+00
1.940000e+00 0.000000e+00 0.000000e+00
1.950000e+00 0.000000e+00 0.000000e+00
1.960000e+00 0.000000e+00 0.000000e+00
1.970000e+00 0.000000e+00 0.000000e+00
1.980000e+00 0.000000e+00 0.000000e+00
1.990000e+00 0.000000e+00 0.000000e+00
2.000000e+00 0.000000e+00 0.000000e+00
2.010000e+00 0.000000e+00 0.000000e+00
2.020000e+00 0.000000e+00 0.000000e+00
2.030000e+00 0.000000e+00 0.000000e+00
2.040000e+00 0.000000e+00 0.000000e+00
2.050000e+00 0.000000e+00 0.000000e+00
2.060000e+00 0.000000e+00 0.000000e+00
2.070000e+00 0.000000e+00 0.000000e+00
2.080000e+00 0.000000e+00 0.000000e+00
2.090000e+00 0.000000e+00 0.000000e+00
2.100000e+00 0.000000e+00 0.000000e+00
2.110000e+00 0.000000e+00 0.000000e+00
2.120000e+00 0.000000e+00 0.000000e+00
2.130000e+00 0.000000e+00 0.000000e+00
2.140000e+00 0.000000e+00 0.000000e+00
2.150000e+00 0.000000e+00 0.000000e+00
2.160000e+00 0.000000e+00 0.000000e+00
2.170000e+00 0.000000e+00 0.000000e+00
2.180000e+00 0.000000e+00 0.000000e+00
2.190000e+00 0.000000e+00 0.000000e+00
2.200000e+00 0.000000e+00 0.000000e+00
2.210000e+00 0.000000e+00 0.000000e+00
2.220000e+00 0.000000e+00 0.000000e+00
2.230000e+00 0.000000e+00 0.000000e+00
2.240000e+00 0.000000e+00 0.000000e+00
2.250000e+00 0.000000e+00 0.000000e+00
2.260000e+00 0.000000e+00 0.000000e+00
2.270000e+00 0.000000e+00 0.000000e+00
2.280000e+00 0.000000e+00 0.000000e+00
2.290000e+00 0.000000e+00 0.000000e+00
2.300000e+00 0.000000e+00 0.000000e+00
2.310000e+00 0.000000e+00 0.000000e+00
2.320000e+00 0.000000e+00 0.000000e+00
2.330000e+00 0.000000e+00 0.000000e+00
2.340000e+00 0.000000e+00 0.000000e+00
2.350000e+00 0.000000e+00 0.000000e+00
2.360000e+00 0.000000e+00 0.000000e+00
2.370000e+00 0.000000e+00 0.000000e+00
2.380000e+00 0.000000e+00 0.000000e+00
2.390000e+00 0.000000e+00 0.000000e+00
2.400000e+00 0.000000e+00 0.000000e+00
2.410000e+00 0.000000e+00 0.000000e+00
2.420000e+00 0.000000e+00 0.000000e+00
2.430000e+00 0.000000e+00 0.000000e+00
2.440000e+00 0.000000e+00 0.000000e+00
2.450000e+00 0.000000e+00 0.000000e+00
2.460000e+00 0.000000e+00 0.000000e+00
2.470000e+00 0.000000e+00 0.000000e+00
2.480000e+00 0.000000e+00 0.000000e+00
2.490000e+00 0.000000e+00 0.000000e+00
2.500000e+00 0.000000e+00 0.000000e+00
2.510000e+00 0.000000e+00 0.000000e+00
2.520000e+00 0.000000e+00 0.000000e+00
2.530000e+00 0.000000e+00 0.000000e+00
[...]
POINT_DATA 501
SCALARS vm float 1
LOOKUP_TABLE default
-8.297692e+01
-8.297688e+01
-8.297678e+01
-8.297665e+01
-8.297646e+01
-8.297617e+01
-8.297590e+01
-8.297560e+01
-8.297526e+01
-8.297489e+01
-8.297448e+01
-8.297403e+01
-8.297355e+01
-8.297304e+01
-8.297249e+01
-8.297191e+01
-8.297130e+01
-8.297065e+01
-8.296997e+01
-8.296926e+01
-8.296852e+01
-8.296775e+01
-8.296694e+01
-8.296611e+01
-8.296524e+01
-8.296435e+01
-8.296342e+01
-8.296246e+01
-8.296148e+01
-8.296046e+01
-8.295942e+01
-8.295835e+01
-8.295724e+01
-8.295611e+01
-8.295495e+01
-8.295376e+01
-8.295254e+01
-8.295130e+01
-8.295002e+01
-8.294872e+01
-8.294739e+01
-8.294603e+01
-8.294465e+01
-8.294323e+01
-8.294179e+01
-8.294032e+01
-8.293883e+01
-8.293730e+01
-8.293575e+01
-8.293418e+01
-8.293257e+01
-8.293094e+01
-8.292928e+01
-8.292759e+01
-8.292588e+01
-8.292414e+01
-8.292238e+01
-8.292058e+01
-8.291876e+01
-8.291692e+01
-8.291504e+01
-8.291315e+01
-8.291122e+01
-8.290927e+01
-8.290729e+01
-8.290529e+01
-8.290326e+01
-8.290120e+01
-8.289911e+01
-8.289701e+01
-8.289487e+01
-8.289271e+01
-8.289052e+01
-8.288831e+01
-8.288607e+01
-8.288381e+01
-8.288152e+01
-8.287920e+01
-8.287686e+01
-8.287449e+01
-8.287210e+01
-8.286968e+01
-8.286723e+01
-8.286476e+01
-8.286227e+01
-8.285975e+01
-8.285720e+01
-8.285463e+01
-8.285203e+01
-8.284941e+01
-8.284676e+01
-8.284409e+01
-8.284139e+01
-8.283867e+01
-8.283592e+01
-8.283314e+01
-8.283035e+01
-8.282752e+01
-8.282467e+01
-8.282180e+01
-8.281890e+01
-8.281598e+01
-8.281303e+01
-8.281006e+01
-8.280706e+01
-8.280404e+01
-8.280099e+01
-8.279792e+01
-8.279483e+01
-8.279171e+01
-8.278856e+01
-8.278539e+01
-8.278220e+01
-8.277898e+01
-8.277574e+01
-8.277248e+01
-8.276919e+01
-8.276587e+01
-8.276253e+01
-8.275917e+01
-8.275579e+01
-8.275237e+01
-8.274894e+01
-8.274548e+01
-8.274200e+01
-8.273850e+01
-8.273497e+01
-8.273141e+01
-8.272784e+01
-8.272424e+01
-8.272062e+01
-8.271697e+01
-8.271330e+01
-8.270961e+01
-8.270589e+01
-8.270215e+01
-8.269839e+01
-8.269460e+01
-8.269079e+01
-8.268696e+01
-8.268311e+01
-8.267923e+01
-8.267533e+01
-8.267141e+01
-8.266747e+01
-8.266350e+01
-8.265951e+01
-8.265550e+01
-8.265146e+01
-8.264740e+01
-8.264333e+01
-8.263922e+01
-8.263510e+01
-8.263096e+01
-8.262679e+01
-8.262260e+01
-8.261839e+01
-8.261416e+01
-8.260990e+01
-8.260563e+01
-8.260133e+01
-8.259701e+01
-8.259267e+01
-8.258831e+01
-8.258393e+01
-8.257953e+01
-8.257510e+01
-8.257066e+01
-8.256619e+01
-8.256171e+01
-8.255720e+01
-8.255267e+01
-8.254813e+01
-8.254356e+01
-8.253897e+01
-8.253436e+01
-8.252973e+01
-8.252509e+01
-8.252042e+01
-8.251573e+01
-8.251102e+01
-8.250630e+01
-8.250155e+01
-8.249678e+01
-8.249200e+01
-8.248720e+01
-8.248237e+01
-8.247753e+01
-8.247267e+01
-8.246779e+01
-8.246289e+01
-8.245797e+01
-8.245304e+01
-8.244809e+01
-8.244311e+01
-8.243812e+01
-8.243312e+01
-8.242809e+01
-8.242305e+01
-8.241799e+01
-8.241291e+01
-8.240781e+01
-8.240270e+01
-8.239757e+01
-8.239242e+01
-8.238726e+01
-8.238208e+01
-8.237688e+01
-8.237167e+01
-8.236644e+01
-8.236120e+01
-8.235593e+01
-8.235066e+01
-8.234536e+01
-8.234006e+01
-8.233473e+01
-8.232939e+01
-8.232404e+01
-8.231867e+01
-8.231328e+01
-8.230788e+01
-8.230247e+01
-8.229704e+01
-8.229160e+01
-8.228614e+01
-8.228067e+01
-8.227519e+01
-8.226969e+01
-8.226418e+01
-8.225865e+01
-8.225311e+01
-8.224756e+01
-8.224200e+01
-8.223642e+01
-8.223084e+01
-8.222523e+01
-8.221962e+01
-8.221399e+01
-8.220836e+01
-8.220271e+01
-8.219705e+01
-8.219138e+01
-8.218569e+01
-8.218000e+01
-8.217429e+01
-8.216858e+01
-8.216285e+01
-8.215712e+01
-8.215137e+01
-8.214562e+01
-8.213985e+01
-8.213408e+01
-8.212829e+01
-8.212250e+01
-8.211670e+01
-8.211089e+01
-8.210507e+01
-8.209924e+01
-8.209341e+01
-8.208757e+01
-8.208172e+01
-8.207586e+01
-8.206999e+01
-8.206412e+01
-8.205824e+01
-8.205236e+01
-8.204647e+01
-8.204057e+01
-8.203466e+01
-8.202875e+01
-8.202284e+01
-8.201692e+01
-8.201099e+01
-8.200506e+01
-8.199913e+01
-8.199319e+01
-8.198725e+01
-8.198130e+01
-8.197535e+01
-8.196940e+01
-8.196344e+01
-8.195748e+01
-8.195152e+01
-8.194555e+01
-8.193958e+01
-8.193361e+01
-8.192764e+01
-8.192167e+01
-8.191570e+01
-8.190972e+01
-8.190374e+01
-8.189777e+01
-8.189179e+01
-8.188582e+01
-8.187984e+01
-8.187386e+01
-8.186789e+01
-8.186191e+01
-8.185594e+01
-8.184997e+01
-8.184400e+01
-8.183803e+01
-8.183207e+01
-8.182610e+01
-8.182015e+01
-8.181419e+01
-8.180824e+01
-8.180229e+01
-8.179634e+01
-8.179040e+01
-8.178446e+01
-8.177853e+01
-8.177260e+01
-8.176668e+01
-8.176077e+01
-8.175486e+01
-8.174895e+01
-8.174305e+01
-8.173716e+01
-8.173128e+01
-8.172540e+01
-8.171953e+01
-8.171367e+01
-8.170782e+01
-8.170197e+01
-8.169614e+01
-8.169031e+01
-8.168449e+01
-8.167869e+01
-8.167289e+01
-8.166710e+01
-8.166132e+01
-8.165555e+01
-8.164980e+01
-8.164405e+01
-8.163832e+01
-8.163260e+01
-8.162689e+01
-8.162119e+01
-8.161551e+01
-8.160984e+01
-8.160418e+01
-8.159854e+01
-8.159291e+01
-8.158730e+01
-8.158170e+01
-8.157611e+01
-8.157054e+01
-8.156499e+01
-8.155945e+01
-8.155393e+01
-8.154842e+01
-8.154293e+01
-8.153746e+01
-8.153201e+01
-8.152657e+01
-8.152115e+01
-8.151575e+01
-8.151037e+01
-8.150500e+01
-8.149966e+01
-8.149434e+01
-8.148903e+01
-8.148375e+01
-8.147848e+01
-8.147324e+01
-8.146802e+01
-8.146282e+01
-8.145764e+01
-8.145248e+01
-8.144735e+01
-8.144223e+01
-8.143714e+01
-8.143208e+01
-8.142704e+01
-8.142202e+01
-8.141702e+01
-8.141205e+01
-8.140711e+01
-8.140219e+01
-8.139729e+01
-8.139242e+01
-8.138758e+01
-8.138276e+01
-8.137797e+01
-8.137321e+01
-8.136847e+01
-8.136376e+01
-8.135908e+01
-8.135443e+01
-8.134980e+01
-8.134521e+01
-8.134064e+01
-8.133610e+01
-8.133159e+01
-8.132711e+01
-8.132267e+01
-8.131825e+01
-8.131386e+01
-8.130951e+01
-8.130518e+01
-8.130089e+01
-8.129663e+01
-8.129240e+01
-8.128820e+01
-8.128404e+01
-8.127991e+01
-8.127581e+01
-8.127174e+01
-8.126772e+01
-8.126372e+01
-8.125976e+01
-8.125583e+01
-8.125194e+01
-8.124808e+01
-8.124426e+01
-8.124048e+01
-8.123673e+01
-8.123302e+01
-8.122934e+01
-8.122570e+01
-8.122210e+01
-8.121854e+01
-8.121501e+01
-8.121152e+01
-8.120807e+01
-8.120466e+01
-8.120128e+01
-8.119795e+01
-8.119466e+01
-8.119140e+01
-8.118818e+01
-8.118501e+01
-8.118187e+01
-8.117878e+01
-8.117572e+01
-8.117271e+01
-8.116973e+01
-8.116680e+01
-8.116391e+01
-8.116106e+01
-8.115826e+01
-8.115549e+01
-8.115277e+01
-8.115009e+01
-8.114746e+01
-8.114486e+01
-8.114231e+01
-8.113981e+01
-8.113734e+01
-8.113493e+01
-8.113255e+01
-8.113022e+01
-8.112794e+01
-8.112569e+01
-8.112350e+01
-8.112135e+01
-8.111924e+01
-8.111718e+01
-8.111516e+01
-8.111319e+01
-8.111127e+01
-8.110939e+01
-8.110756e+01
-8.110577e+01
-8.110403e+01
-8.110234e+01
-8.110069e+01
-8.109909e+01
-8.109754e+01
-8.109604e+01
-8.109458e+01
-8.109317e+01
-8.109180e+01
-8.109049e+01
-8.108922e+01
-8.108799e+01
-8.108682e+01
-8.108569e+01
-8.108461e+01
-8.108358e+01
-8.108260e+01
-8.108167e+01
-8.108078e+01
-8.107994e+01
-8.107915e+01
-8.107840e+01
-8.107771e+01
-8.107706e+01
-8.107646e+01
-8.107592e+01
-8.107542e+01
-8.107496e+01
-8.107456e+01
-8.107421e+01
-8.107390e+01
-8.107365e+01
-8.107344e+01
-8.107329e+01
-8.107319e+01
-8.107313e+01
