# vtk DataFile Version 3.0
Monodomain MVF
ASCII
DATASET POLYDATA
POINTS 501 float
0.000000e+00 0.000000e+00 0.000000e+00
1.000000e-02 0.000000e+00 0.000000e+00
2.000000e-02 0.000000e+00 0.000000e+00
3.000000e-02 0.000000e+00 0.000000e+00
4.000000e-02 0.000000e+00 0.000000e+00
5.000000e-02 0.000000e+00 0.000000e+00
6.000000e-02 0.000000e+00 0.000000e+00
7.000000e-02 0.000000e+00 0.000000e+00
8.000000e-02 0.000000e+00 0.000000e+00
9.000000e-02 0.000000e+00 0.000000e+00
1.000000e-01 0.000000e+00 0.000000e+00
1.100000e-01 0.000000e+00 0.000000e+00
1.200000e-01 0.000000e+00 0.000000e+00
1.300000e-01 0.000000e+00 0.000000e+00
1.400000e-01 0.000000e+00 0.000000e+00
1.500000e-01 0.000000e+00 0.000000e+00
1.600000e-01 0.000000e+00 0.000000e+00
1.700000e-01 0.000000e+00 0.000000e+00
1.800000e-01 0.000000e+00 0.000000e+00
1.900000e-01 0.000000e+00 0.000000e+00
2.000000e-01 0.000000e+00 0.000000e+00
2.100000e-01 0.000000e+00 0.000000e+00
2.200000e-01 0.000000e+00 0.000000e+00
2.300000e-01 0.000000e+00 0.000000e+00
2.400000e-01 0.000000e+00 0.000000e+00
2.500000e-01 0.000000e+00 0.000000e+00
2.600000e-01 0.000000e+00 0.000000e+00
2.700000e-01 0.000000e+00 0.000000e+00
2.800000e-01 0.000000e+00 0.000000e+00
2.900000e-01 0.000000e+00 0.000000e+00
3.000000e-01 0.000000e+00 0.000000e+00
3.100000e-01 0.000000e+00 0.000000e+00
3.200000e-01 0.000000e+00 0.000000e+00
3.300000e-01 0.000000e+00 0.000000e+00
3.400000e-01 0.000000e+00 0.000000e+00
3.500000e-01 0.000000e+00 0.000000e+00
3.600000e-01 0.000000e+00 0.000000e+00
3.700000e-01 0.000000e+00 0.000000e+00
3.800000e-01 0.000000e+00 0.000000e+00
3.900000e-01 0.000000e+00 0.000000e+00
4.000000e-01 0.000000e+00 0.000000e+00
4.100000e-01 0.000000e+00 0.000000e+00
4.200000e-01 0.000000e+00 0.000000e+00
4.300000e-01 0.000000e+00 0.000000e+00
4.400000e-01 0.000000e+00 0.000000e+00
4.500000e-01 0.000000e+00 0.000000e+00
4.600000e-01 0.000000e+00 0.000000e+00
4.700000e-01 0.000000e+00 0.000000e+00
4.800000e-01 0.000000e+00 0.000000e+00
4.900000e-01 0.000000e+00 0.000000e+00
5.000000e-01 0.000000e+00 0.000000e+00
5.100000e-01 0.000000e+00 0.000000e+00
5.200000e-01 0.000000e+00 0.000000e+00
5.300000e-01 0.000000e+00 0.000000e+00
5.400000e-01 0.000000e+00 0.000000e+00
5.500000e-01 0.000000e+00 0.000000e+00
5.600000e-01 0.000000e+00 0.000000e+00
5.700000e-01 0.000000e+00 0.000000e+00
5.800000e-01 0.000000e+00 0.000000e+00
5.900000e-01 0.000000e+00 0.000000e+00
6.000000e-01 0.000000e+00 0.000000e+00
6.100000e-01 0.000000e+00 0.000000e+00
6.200000e-01 0.000000e+00 0.000000e+00
6.300000e-01 0.000000e+00 0.000000e+00
6.400000e-01 0.000000e+00 0.000000e+00
6.500000e-01 0.000000e+00 0.000000e+00
6.600000e-01 0.000000e+00 0.000000e+00
6.700000e-01 0.000000e+00 0.000000e+00
6.800000e-01 0.000000e+00 0.000000e+00
6.900000e-01 0.000000e+00 0.000000e+00
7.000000e-01 0.000000e+00 0.000000e+00
7.100000e-01 0.000000e+00 0.000000e+00
7.200000e-01 0.000000e+00 0.000000e+00
7.300000e-01 0.000000e+00 0.000000e+00
7.400000e-01 0.000000e+00 0.000000e+00
7.500000e-01 0.000000e+00 0.000000e+00
7.600000e-01 0.000000e+00 0.000000e+00
7.700000e-01 0.000000e+00 0.000000e+00
7.800000e-01 0.000000e+00 0.000000e+00
7.900000e-01 0.000000e+00 0.000000e+00
8.000000e-01 0.000000e+00 0.000000e+00
8.100000e-01 0.000000e+00 0.000000e+00
8.200000e-01 0.000000e+00 0.000000e+00
8.300000e-01 0.000000e+00 0.000000e+00
8.400000e-01 0.000000e+00 0.000000e+00
8.500000e-01 0.000000e+00 0.000000e+00
8.600000e-01 0.000000e+00 0.000000e+00
8.700000e-01 0.000000e+00 0.000000e+00
8.800000e-01 0.000000e+00 0.000000e+00
8.900000e-01 0.000000e+00 0.000000e+00
9.000000e-01 0.000000e+00 0.000000e+00
9.100000e-01 0.000000e+00 0.000000e+00
9.200000e-01 0.000000e+00 0.000000e+00
9.300000e-01 0.000000e+00 0.000000e+00
9.400000e-01 0.000000e+00 0.000000e+00
9.500000e-01 0.000000e+00 0.000000e+00
9.600000e-01 0.000000e+00 0.000000e+00
9.700000e-01 0.000000e+00 0.000000e+00
9.800000e-01 0.000000e+00 0.000000e+00
9.900000e-01 0.000000e+00 0.000000e+00
1.000000e+00 0.000000e+00 0.000000e+00
1.010000e+00 0.000000e+00 0.000000e+00
1.020000e+00 0.000000e+00 0.000000e+00
1.030000e+00 0.000000e+00 0.000000e+00
1.040000e+00 0.000000e+00 0.000000e+00
1.050000e+00 0.000000e+00 0.000000e+00
1.060000e+00 0.000000e+00 0.000000e+00
1.070000e+00 0.000000e+00 0.000000e+00
1.080000e+00 0.000000e+00 0.000000e+00
1.090000e+00 0.000000e+00 0.000000e+00
1.100000e+00 0.000000e+00 0.000000e+00
1.110000e+00 0.000000e+00 0.000000e+00
1.120000e+00 0.000000e+00 0.000000e+00
1.130000e+00 0.000000e+00 0.000000e+00
1.140000e+00 0.000000e+00 0.000000e+00
1.150000e+00 0.000000e+00 0.000000e+00
1.160000e+00 0.000000e+00 0.000000e+00
1.170000e+00 0.000000e+00 0.000000e+00
1.180000e+00 0.000000e+00 0.000000e+00
1.190000e+00 0.000000e+00 0.000000e+00
1.200000e+00 0.000000e+00 0.000000e+00
1.210000e+00 0.000000e+00 0.000000e+00
1.220000e+00 0.000000e+00 0.000000e+00
1.230000e+00 0.000000e+00 0.000000e+00
1.240000e+00 0.000000e+00 0.000000e+00
1.250000e+00 0.000000e+00 0.000000e+00
1.260000e+00 0.000000e+00 0.000000e+00
1.270000e+00 0.000000e+00 0.000000e+00
1.280000e+00 0.000000e+00 0.000000e+00
1.290000e+00 0.000000e+00 0.000000e+00
1.300000e+00 0.000000e+00 0.000000e+00
1.310000e+00 0.000000e+00 0.000000e+00
1.320000e+00 0.000000e+00 0.000000e+00
1.330000e+00 0.000000e+00 0.000000e+00
1.340000e+00 0.000000e+00 0.000000e+00
1.350000e+00 0.000000e+00 0.000000e+00
1.360000e+00 0.000000e+00 0.000000e+00
1.370000e+00 0.000000e+00 0.000000e+00
1.380000e+00 0.000000e+00 0.000000e+00
1.390000e+00 0.000000e+00 0.000000e+00
1.400000e+00 0.000000e+00 0.000000e+00
1.410000e+00 0.000000e+00 0.000000e+00
1.420000e+00 0.000000e+00 0.000000e+00
1.430000e+00 0.000000e+00 0.000000e+00
1.440000e+00 0.000000e+00 0.000000e+00
1.450000e+00 0.000000e+00 0.000000e+00
1.460000e+00 0.000000e+00 0.000000e+00
1.470000e+00 0.000000e+00 0.000000e+00
1.480000e+00 0.000000e+00 0.000000e+00
1.490000e+00 0.000000e+00 0.000000e+00
1.500000e+00 0.000000e+00 0.000000e+00
1.510000e+00 0.000000e+00 0.000000e+00
1.520000e+00 0.000000e+00 0.000000e+00
1.530000e+00 0.000000e+00 0.000000e+00
1.540000e+00 0.000000e+00 0.000000e+00
1.550000e+00 0.000000e+00 0.000000e+00
1.560000e+00 0.000000e+00 0.000000e+00
1.570000e+00 0.000000e+00 0.000000e+00
1.580000e+00 0.000000e+00 0.000000e+00
1.590000e+00 0.000000e+00 0.000000e+00
1.600000e+00 0.000000e+00 0.000000e+00
1.610000e+00 0.000000e+00 0.000000e+00
1.620000e+00 0.000000e+00 0.000000e+00
1.630000e+00 0.000000e+00 0.000000e+00
1.640000e+00 0.000000e+00 0.000000e+00
1.650000e+00 0.000000e+00 0.000000e+00
1.660000e+00 0.000000e+00 0.000000e+00
1.670000e+00 0.000000e+00 0.000000e+00
1.680000e+00 0.000000e+00 0.000000e+00
1.690000e+00 0.000000e+00 0.000000e+00
1.700000e+00 0.000000e+00 0.000000e+00
1.710000e+00 0.000000e+00 0.000000e+00
1.720000e+00 0.000000e+00 0.000000e+00
1.730000e+00 0.000000e+00 0.000000e+00
1.740000e+00 0.000000e+00 0.000000e+00
1.750000e+00 0.000000e+00 0.000000e+00
1.760000e+00 0.000000e+00 0.000000e+00
1.770000e+00 0.000000e+00 0.000000e+00
1.780000e+00 0.000000e+00 0.000000e+00
1.790000e+00 0.000000e+00 0.000000e+00
1.800000e+00 0.000000e+00 0.000000e+00
1.810000e+00 0.000000e+00 0.000000e+00
1.820000e+00 0.000000e+00 0.000000e+00
1.830000e+00 0.000000e+00 0.000000e+00
1.840000e+00 0.000000e+00 0.000000e+00
1.850000e+00 0.000000e+00 0.000000e+00
1.860000e+00 0.000000e+00 0.000000e+00
1.870000e+00 0.000000e+00 0.000000e+00
1.880000e+00 0.000000e+00 0.000000e+00
1.890000e+00 0.000000e+00 0.000000e+00
1.900000e+00 0.000000e+00 0.000000e+00
1.910000e+00 0.000000e+00 0.000000e+00
1.920000e+00 0.000000e+00 0.000000e+00
1.930000e+00 0.000000e+00 0.000000e+00
1.940000e+00 0.000000e+00 0.000000e+00
1.950000e+00 0.000000e+00 0.000000e+00
1.960000e+00 0.000000e+00 0.000000e+00
1.970000e+00 0.000000e+00 0.000000e+00
1.980000e+00 0.000000e+00 0.000000e+00
1.990000e+00 0.000000e+00 0.000000e+00
2.000000e+00 0.000000e+00 0.000000e+00
2.010000e+00 0.000000e+00 0.000000e+00
2.020000e+00 0.000000e+00 0.000000e+00
2.030000e+00 0.000000e+00 0.000000e+00
2.040000e+00 0.000000e+00 0.000000e+00
2.050000e+00 0.000000e+00 0.000000e+00
2.060000e+00 0.000000e+00 0.000000e+00
2.070000e+00 0.000000e+00 0.000000e+00
2.080000e+00 0.000000e+00 0.000000e+00
2.090000e+00 0.000000e+00 0.000000e+00
2.100000e+00 0.000000e+00 0.000000e+00
2.110000e+00 0.000000e+00 0.000000e+00
2.120000e+00 0.000000e+00 0.000000e+00
2.130000e+00 0.000000e+00 0.000000e+00
2.140000e+00 0.000000e+00 0.000000e+00
2.150000e+00 0.000000e+00 0.000000e+00
2.160000e+00 0.000000e+00 0.000000e+00
2.170000e+00 0.000000e+00 0.000000e+00
2.180000e+00 0.000000e+00 0.000000e+00
2.190000e+00 0.000000e+00 0.000000e+00
2.200000e+00 0.000000e+00 0.000000e+00
2.210000e+00 0.000000e+00 0.000000e+00
2.220000e+00 0.000000e+00 0.000000e+00
2.230000e+00 0.000000e+00 0.000000e+00
2.240000e+00 0.000000e+00 0.000000e+00
2.250000e+00 0.000000e+00 0.000000e+00
2.260000e+00 0.000000e+00 0.000000e+00
2.270000e+00 0.000000e+00 0.000000e+00
2.280000e+00 0.000000e+00 0.000000e+00
2.290000e+00 0.000000e+00 0.000000e+00
2.300000e+00 0.000000e+00 0.000000e+00
2.310000e+00 0.000000e+00 0.000000e+00
2.320000e+00 0.000000e+00 0.000000e+00
2.330000e+00 0.000000e+00 0.000000e+00
2.340000e+00 0.000000e+00 0.000000e+00
2.350000e+00 0.000000e+00 0.000000e+00
2.360000e+00 0.000000e+00 0.000000e+00
2.370000e+00 0.000000e+00 0.000000e+00
2.380000e+00 0.000000e+00 0.000000e+00
2.390000e+00 0.000000e+00 0.000000e+00
2.400000e+00 0.000000e+00 0.000000e+00
2.410000e+00 0.000000e+00 0.000000e+00
2.420000e+00 0.000000e+00 0.000000e+00
2.430000e+00 0.000000e+00 0.000000e+00
2.440000e+00 0.000000e+00 0.000000e+00
2.450000e+00 0.000000e+00 0.000000e+00
2.460000e+00 0.000000e+00 0.000000e+00
2.470000e+00 0.000000e+00 0.000000e+00
2.480000e+00 0.000000e+00 0.000000e+00
2.490000e+00 0.000000e+00 0.000000e+00
2.500000e+00 0.000000e+00 0.000000e+00
2.510000e+00 0.000000e+00 0.000000e+00
2.520000e+00 0.000000e+00 0.000000e+00
2.530000e+00 0.000000e+00 0.000000e+00
[...]
POINT_DATA 501
SCALARS vm float 1
LOOKUP_TABLE default
-8.438497e+01
-8.438496e+01
-8.438494e+01
-8.438491e+01
-8.438487e+01
-8.438475e+01
-8.438470e+01
-8.438465e+01
-8.438459e+01
-8.438454e+01
-8.438448e+01
-8.438442e+01
-8.438436e+01
-8.438430e+01
-8.438424e+01
-8.438418e+01
-8.438411e+01
-8.438405e+01
-8.438399e+01
-8.438392e+01
-8.438386e+01
-8.438379e+01
-8.438373e+01
-8.438366e+01
-8.438360e+01
-8.438353e+01
-8.438347e+01
-8.438340e+01
-8.438334e+01
-8.438328e+01
-8.438321e+01
-8.438315e+01
-8.438309e+01
-8.438303e+01
-8.438297e+01
-8.438291e+01
-8.438285e+01
-8.438279e+01
-8.438273e+01
-8.438267e+01
-8.438261e+01
-8.438256e+01
-8.438250e+01
-8.438245e+01
-8.438240e+01
-8.438234e+01
-8.438229e+01
-8.438224e+01
-8.438219e+01
-8.438214e+01
-8.438209e+01
-8.438204e+01
-8.438200e+01
-8.438195e+01
-8.438190e+01
-8.438186e+01
-8.438182e+01
-8.438177e+01
-8.438173e+01
-8.438169e+01
-8.438165e+01
-8.438161e+01
-8.438157e+01
-8.438154e+01
-8.438150e+01
-8.438146e+01
-8.438143e+01
-8.438139e+01
-8.438136e+01
-8.438133e+01
-8.438130e+01
-8.438126e+01
-8.438123e+01
-8.438121e+01
-8.438118e+01
-8.438115e+01
-8.438112e+01
-8.438110e+01
-8.438107e+01
-8.438105e+01
-8.438102e+01
-8.438100e+01
-8.438098e+01
-8.438096e+01
-8.438094e+01
-8.438092e+01
-8.438090e+01
-8.438088e+01
-8.438086e+01
-8.438084e+01
-8.438083e+01
-8.438081e+01
-8.438080e+01
-8.438078e+01
-8.438077e+01
-8.438076e+01
-8.438074e+01
-8.438073e+01
-8.438072e+01
-8.438071e+01
-8.438070e+01
-8.438069e+01
-8.438068e+01
-8.438068e+01
-8.438067e+01
-8.438066e+01
-8.438066e+01
-8.438065e+01
-8.438065e+01
-8.438064e+01
-8.438064e+01
-8.438064e+01
-8.438063e+01
-8.438063e+01
-8.438063e+01
-8.438063e+01
-8.438063e+01
-8.438063e+01
-8.438063e+01
-8.438063e+01
-8.438063e+01
-8.438064e+01
-8.438064e+01
-8.438064e+01
-8.438065e+01
-8.438065e+01
-8.438066e+01
-8.438066e+01
-8.438067e+01
-8.438068e+01
-8.438068e+01
-8.438069e+01
-8.438070e+01
-8.438071e+01
-8.438072e+01
-8.438073e+01
-8.438074e+01
-8.438075e+01
-8.438076e+01
-8.438077e+01
-8.438078e+01
-8.438079e+01
-8.438080e+01
-8.438082e+01
-8.438083e+01
-8.438085e+01
-8.438086e+01
-8.438087e+01
-8.438089e+01
-8.438090e+01
-8.438092e+01
-8.438094e+01
-8.438095e+01
-8.438097e+01
-8.438099e+01
-8.438101e+01
-8.438102e+01
-8.438104e+01
-8.438106e+01
-8.438108e+01
-8.438110e+01
-8.438112e+01
-8.438114e+01
-8.438116e+01
-8.438118e+01
-8.438121e+01
-8.438123e+01
-8.438125e+01
-8.438127e+01
-8.438130e+01
-8.438132e+01
-8.438134e+01
-8.438137e+01
-8.438139e+01
-8.438142e+01
-8.438144e+01
-8.438147e+01
-8.438149e+01
-8.438152e+01
-8.438155e+01
-8.438157e+01
-8.438160e+01
-8.438163e+01
-8.438165e+01
-8.438168e+01
-8.438171e+01
-8.438174e+01
-8.438177e+01
-8.438180e+01
-8.438182e+01
-8.438185e+01
-8.438188e+01
-8.438191e+01
-8.438194e+01
-8.438197e+01
-8.438201e+01
-8.438204e+01
-8.438207e+01
-8.438210e+01
-8.438213e+01
-8.438216e+01
-8.438220e+01
-8.438223e+01
-8.438226e+01
-8.438230e+01
-8.438233e+01
-8.438236e+01
-8.438240e+01
-8.438243e+01
-8.438247e+01
-8.438250e+01
-8.438253e+01
-8.438257e+01
-8.438260e+01
-8.438264e+01
-8.438268e+01
-8.438271e+01
-8.438275e+01
-8.438278e+01
-8.438282e+01
-8.438286e+01
-8.438289e+01
-8.438293e+01
-8.438297e+01
-8.438301e+01
-8.438304e+01
-8.438308e+01
-8.438312e+01
-8.438316e+01
-8.438320e+01
-8.438323e+01
-8.438327e+01
-8.438331e+01
-8.438335e+01
-8.438339e+01
-8.438343e+01
-8.438347e+01
-8.438351e+01
-8.438355e+01
-8.438359e+01
-8.438363e+01
-8.438367e+01
-8.438371e+01
-8.438375e+01
-8.438379e+01
-8.438383e+01
-8.438387e+01
-8.438391e+01
-8.438395e+01
-8.438399e+01
-8.438404e+01
-8.438408e+01
-8.438412e+01
-8.438416e+01
-8.438420e+01
-8.438424e+01
-8.438428e+01
-8.438433e+01
-8.438437e+01
-8.438441e+01
-8.438445e+01
-8.438450e+01
-8.438454e+01
-8.438458e+01
-8.438462e+01
-8.438466e+01
-8.438471e+01
-8.438475e+01
-8.438479e+01
-8.438484e+01
-8.438488e+01
-8.438492e+01
-8.438496e+01
-8.438501e+01
-8.438505e+01
-8.438509e+01
-8.438514e+01
-8.438518e+01
-8.438522e+01
-8.438527e+01
-8.438531e+01
-8.438535e+01
-8.438539e+01
-8.438544e+01
-8.438548e+01
-8.438552e+01
-8.438557e+01
-8.438561e+01
-8.438565e+01
-8.438570e+01
-8.438574e+01
-8.438578e+01
-8.438582e+01
-8.438587e+01
-8.438591e+01
-8.438595e+01
-8.438600e+01
-8.438604e+01
-8.438608e+01
-8.438612e+01
-8.438617e+01
-8.438621e+01
-8.438625e+01
-8.438629e+01
-8.438634e+01
-8.438638e+01
-8.438642e+01
-8.438646e+01
-8.438650e+01
-8.438655e+01
-8.438659e+01
-8.438663e+01
-8.438667e+01
-8.438671e+01
-8.438675e+01
-8.438679e+01
-8.438684e+01
-8.438688e+01
-8.438692e+01
-8.438696e+01
-8.438700e+01
-8.438704e+01
-8.438708e+01
-8.438712e+01
-8.438716e+01
-8.438720e+01
-8.438724e+01
-8.438728e+01
-8.438732e+01
-8.438736e+01
-8.438740e+01
-8.438744e+01
-8.438747e+01
-8.438751e+01
-8.438755e+01
-8.438759e+01
-8.438763e+01
-8.438766e+01
-8.438770e+01
-8.438774e+01
-8.438778e+01
-8.438781e+01
-8.438785e+01
-8.438788e+01
-8.438792e+01
-8.438796e+01
-8.438799e+01
-8.438803e+01
-8.438806e+01
-8.438810e+01
-8.438813e+01
-8.438817e+01
-8.438820e+01
-8.438823e+01
-8.438827e+01
-8.438830e+01
-8.438833e+01
-8.438837e+01
-8.438840e+01
-8.438843e+01
-8.438846e+01
-8.438850e+01
-8.438853e+01
-8.438856e+01
-8.438859e+01
-8.438862e+01
-8.438865e+01
-8.438868e+01
-8.438871e+01
-8.438874e+01
-8.438876e+01
-8.438879e+01
-8.438882e+01
-8.438885e+01
-8.438888e+01
-8.438890e+01
-8.438893e+01
-8.438896e+01
-8.438898e+01
-8.438901e+01
-8.438903e+01
-8.438906e+01
-8.438908e+01
-8.438910e+01
-8.438913e+01
-8.438915e+01
-8.438917e+01
-8.438920e+01
-8.438922e+01
-8.438924e+01
-8.438926e+01
-8.438928e+01
-8.438930e+01
-8.438932e+01
-8.438934e+01
-8.438936e+01
-8.438938e+01
-8.438940e+01
-8.438942e+01
-8.438943e+01
-8.438945e+01
-8.438947e+01
-8.438948e+01
-8.438950e+01
-8.438951e+01
-8.438953e+01
-8.438954e+01
-8.438955e+01
-8.438957e+01
-8.438958e+01
-8.438959e+01
-8.438960e+01
-8.438962e+01
-8.438963e+01
-8.438964e+01
-8.438965e+01
-8.438966e+01
-8.438967e+01
-8.438967e+01
-8.438968e+01
-8.438969e+01
-8.438970e+01
-8.438970e+01
-8.438971e+01
-8.438972e+01
-8.438972e+01
-8.438973e+01
-8.438973e+01
-8.438973e+01
-8.438974e+01
-8.438974e+01
-8.438974e+01
-8.438974e+01
-8.438975e+01
-8.438975e+01
-8.438975e+01
-8.438975e+01
-8.438975e+01
-8.438975e+01
-8.438975e+01
-8.438974e+01
-8.438974e+01
-8.438974e+01
-8.438974e+01
-8.438973e+01
-8.438973e+01
-8.438973e+01
-8.438972e+01
-8.438972e+01
-8.438971e+01
-8.438970e+01
-8.438970e+01
-8.438969e+01
-8.438968e+01
-8.438968e+01
-8.438967e+01
-8.438966e+01
-8.438965e+01
-8.438965e+01
-8.438964e+01
-8.438963e+01
-8.438962e+01
-8.438961e+01
-8.438960e+01
-8.438959e+01
-8.438958e+01
-8.438957e+01
-8.438956e+01
-8.438955e+01
-8.438954e+01
-8.438953e+01
-8.438952e+01
-8.438950e+01
-8.438949e+01
-8.438948e+01
-8.438947e+01
-8.438946e+01
-8.438945e+01
-8.438944e+01
-8.438942e+01
-8.438941e+01
-8.438940e+01
-8.438939e+01
-8.438938e+01
-8.438937e+01
-8.438936e+01
-8.438935e+01
-8.438934e+01
-8.438933e+01
-8.438932e+01
-8.438931e+01
-8.438930e+01
-8.438929e+01
-8.438928e+01
-8.438927e+01
-8.438926e+01
-8.438925e+01
-8.438925e+01
-8.438924e+01
-8.438924e+01
-8.438924e+01
