# vtk DataFile Version 3.0
Monodomain MVF
ASCII
DATASET POLYDATA
POINTS 501 float
0.000000e+00 0.000000e+00 0.000000e+00
1.000000e-02 0.000000e+00 0.000000e+00
2.000000e-02 0.000000e+00 0.000000e+00
3.000000e-02 0.000000e+00 0.000000e+00
4.000000e-02 0.000000e+00 0.000000e+00
5.000000e-02 0.000000e+00 0.000000e+00
6.000000e-02 0.000000e+00 0.000000e+00
7.000000e-02 0.000000e+00 0.000000e+00
8.000000e-02 0.000000e+00 0.000000e+00
9.000000e-02 0.000000e+00 0.000000e+00
1.000000e-01 0.000000e+00 0.000000e+00
1.100000e-01 0.000000e+00 0.000000e+00
1.200000e-01 0.000000e+00 0.000000e+00
1.300000e-01 0.000000e+00 0.000000e+00
1.400000e-01 0.000000e+00 0.000000e+00
1.500000e-01 0.000000e+00 0.000000e+00
1.600000e-01 0.000000e+00 0.000000e+00
1.700000e-01 0.000000e+00 0.000000e+00
1.800000e-01 0.000000e+00 0.000000e+00
1.900000e-01 0.000000e+00 0.000000e+00
2.000000e-01 0.000000e+00 0.000000e+00
2.100000e-01 0.000000e+00 0.000000e+00
2.200000e-01 0.000000e+00 0.000000e+00
2.300000e-01 0.000000e+00 0.000000e+00
2.400000e-01 0.000000e+00 0.000000e+00
2.500000e-01 0.000000e+00 0.000000e+00
2.600000e-01 0.000000e+00 0.000000e+00
2.700000e-01 0.000000e+00 0.000000e+00
2.800000e-01 0.000000e+00 0.000000e+00
2.900000e-01 0.000000e+00 0.000000e+00
3.000000e-01 0.000000e+00 0.000000e+00
3.100000e-01 0.000000e+00 0.000000e+00
3.200000e-01 0.000000e+00 0.000000e+00
3.300000e-01 0.000000e+00 0.000000e+00
3.400000e-01 0.000000e+00 0.000000e+00
3.500000e-01 0.000000e+00 0.000000e+00
3.600000e-01 0.000000e+00 0.000000e+00
3.700000e-01 0.000000e+00 0.000000e+00
3.800000e-01 0.000000e+00 0.000000e+00
3.900000e-01 0.000000e+00 0.000000e+00
4.000000e-01 0.000000e+00 0.000000e+00
4.100000e-01 0.000000e+00 0.000000e+00
4.200000e-01 0.000000e+00 0.000000e+00
4.300000e-01 0.000000e+00 0.000000e+00
4.400000e-01 0.000000e+00 0.000000e+00
4.500000e-01 0.000000e+00 0.000000e+00
4.600000e-01 0.000000e+00 0.000000e+00
4.700000e-01 0.000000e+00 0.000000e+00
4.800000e-01 0.000000e+00 0.000000e+00
4.900000e-01 0.000000e+00 0.000000e+00
5.000000e-01 0.000000e+00 0.000000e+00
5.100000e-01 0.000000e+00 0.000000e+00
5.200000e-01 0.000000e+00 0.000000e+00
5.300000e-01 0.000000e+00 0.000000e+00
5.400000e-01 0.000000e+00 0.000000e+00
5.500000e-01 0.000000e+00 0.000000e+00
5.600000e-01 0.000000e+00 0.000000e+00
5.700000e-01 0.000000e+00 0.000000e+00
5.800000e-01 0.000000e+00 0.000000e+00
5.900000e-01 0.000000e+00 0.000000e+00
6.000000e-01 0.000000e+00 0.000000e+00
6.100000e-01 0.000000e+00 0.000000e+00
6.200000e-01 0.000000e+00 0.000000e+00
6.300000e-01 0.000000e+00 0.000000e+00
6.400000e-01 0.000000e+00 0.000000e+00
6.500000e-01 0.000000e+00 0.000000e+00
6.600000e-01 0.000000e+00 0.000000e+00
6.700000e-01 0.000000e+00 0.000000e+00
6.800000e-01 0.000000e+00 0.000000e+00
6.900000e-01 0.000000e+00 0.000000e+00
7.000000e-01 0.000000e+00 0.000000e+00
7.100000e-01 0.000000e+00 0.000000e+00
7.200000e-01 0.000000e+00 0.000000e+00
7.300000e-01 0.000000e+00 0.000000e+00
7.400000e-01 0.000000e+00 0.000000e+00
7.500000e-01 0.000000e+00 0.000000e+00
7.600000e-01 0.000000e+00 0.000000e+00
7.700000e-01 0.000000e+00 0.000000e+00
7.800000e-01 0.000000e+00 0.000000e+00
7.900000e-01 0.000000e+00 0.000000e+00
8.000000e-01 0.000000e+00 0.000000e+00
8.100000e-01 0.000000e+00 0.000000e+00
8.200000e-01 0.000000e+00 0.000000e+00
8.300000e-01 0.000000e+00 0.000000e+00
8.400000e-01 0.000000e+00 0.000000e+00
8.500000e-01 0.000000e+00 0.000000e+00
8.600000e-01 0.000000e+00 0.000000e+00
8.700000e-01 0.000000e+00 0.000000e+00
8.800000e-01 0.000000e+00 0.000000e+00
8.900000e-01 0.000000e+00 0.000000e+00
9.000000e-01 0.000000e+00 0.000000e+00
9.100000e-01 0.000000e+00 0.000000e+00
9.200000e-01 0.000000e+00 0.000000e+00
9.300000e-01 0.000000e+00 0.000000e+00
9.400000e-01 0.000000e+00 0.000000e+00
9.500000e-01 0.000000e+00 0.000000e+00
9.600000e-01 0.000000e+00 0.000000e+00
9.700000e-01 0.000000e+00 0.000000e+00
9.800000e-01 0.000000e+00 0.000000e+00
9.900000e-01 0.000000e+00 0.000000e+00
1.000000e+00 0.000000e+00 0.000000e+00
1.010000e+00 0.000000e+00 0.000000e+00
1.020000e+00 0.000000e+00 0.000000e+00
1.030000e+00 0.000000e+00 0.000000e+00
1.040000e+00 0.000000e+00 0.000000e+00
1.050000e+00 0.000000e+00 0.000000e+00
1.060000e+00 0.000000e+00 0.000000e+00
1.070000e+00 0.000000e+00 0.000000e+00
1.080000e+00 0.000000e+00 0.000000e+00
1.090000e+00 0.000000e+00 0.000000e+00
1.100000e+00 0.000000e+00 0.000000e+00
1.110000e+00 0.000000e+00 0.000000e+00
1.120000e+00 0.000000e+00 0.000000e+00
1.130000e+00 0.000000e+00 0.000000e+00
1.140000e+00 0.000000e+00 0.000000e+00
1.150000e+00 0.000000e+00 0.000000e+00
1.160000e+00 0.000000e+00 0.000000e+00
1.170000e+00 0.000000e+00 0.000000e+00
1.180000e+00 0.000000e+00 0.000000e+00
1.190000e+00 0.000000e+00 0.000000e+00
1.200000e+00 0.000000e+00 0.000000e+00
1.210000e+00 0.000000e+00 0.000000e+00
1.220000e+00 0.000000e+00 0.000000e+00
1.230000e+00 0.000000e+00 0.000000e+00
1.240000e+00 0.000000e+00 0.000000e+00
1.250000e+00 0.000000e+00 0.000000e+00
1.260000e+00 0.000000e+00 0.000000e+00
1.270000e+00 0.000000e+00 0.000000e+00
1.280000e+00 0.000000e+00 0.000000e+00
1.290000e+00 0.000000e+00 0.000000e+00
1.300000e+00 0.000000e+00 0.000000e+00
1.310000e+00 0.000000e+00 0.000000e+00
1.320000e+00 0.000000e+00 0.000000e+00
1.330000e+00 0.000000e+00 0.000000e+00
1.340000e+00 0.000000e+00 0.000000e+00
1.350000e+00 0.000000e+00 0.000000e+00
1.360000e+00 0.000000e+00 0.000000e+00
1.370000e+00 0.000000e+00 0.000000e+00
1.380000e+00 0.000000e+00 0.000000e+00
1.390000e+00 0.000000e+00 0.000000e+00
1.400000e+00 0.000000e+00 0.000000e+00
1.410000e+00 0.000000e+00 0.000000e+00
1.420000e+00 0.000000e+00 0.000000e+00
1.430000e+00 0.000000e+00 0.000000e+00
1.440000e+00 0.000000e+00 0.000000e+00
1.450000e+00 0.000000e+00 0.000000e+00
1.460000e+00 0.000000e+00 0.000000e+00
1.470000e+00 0.000000e+00 0.000000e+00
1.480000e+00 0.000000e+00 0.000000e+00
1.490000e+00 0.000000e+00 0.000000e+00
1.500000e+00 0.000000e+00 0.000000e+00
1.510000e+00 0.000000e+00 0.000000e+00
1.520000e+00 0.000000e+00 0.000000e+00
1.530000e+00 0.000000e+00 0.000000e+00
1.540000e+00 0.000000e+00 0.000000e+00
1.550000e+00 0.000000e+00 0.000000e+00
1.560000e+00 0.000000e+00 0.000000e+00
1.570000e+00 0.000000e+00 0.000000e+00
1.580000e+00 0.000000e+00 0.000000e+00
1.590000e+00 0.000000e+00 0.000000e+00
1.600000e+00 0.000000e+00 0.000000e+00
1.610000e+00 0.000000e+00 0.000000e+00
1.620000e+00 0.000000e+00 0.000000e+00
1.630000e+00 0.000000e+00 0.000000e+00
1.640000e+00 0.000000e+00 0.000000e+00
1.650000e+00 0.000000e+00 0.000000e+00
1.660000e+00 0.000000e+00 0.000000e+00
1.670000e+00 0.000000e+00 0.000000e+00
1.680000e+00 0.000000e+00 0.000000e+00
1.690000e+00 0.000000e+00 0.000000e+00
1.700000e+00 0.000000e+00 0.000000e+00
1.710000e+00 0.000000e+00 0.000000e+00
1.720000e+00 0.000000e+00 0.000000e+00
1.730000e+00 0.000000e+00 0.000000e+00
1.740000e+00 0.000000e+00 0.000000e+00
1.750000e+00 0.000000e+00 0.000000e+00
1.760000e+00 0.000000e+00 0.000000e+00
1.770000e+00 0.000000e+00 0.000000e+00
1.780000e+00 0.000000e+00 0.000000e+00
1.790000e+00 0.000000e+00 0.000000e+00
1.800000e+00 0.000000e+00 0.000000e+00
1.810000e+00 0.000000e+00 0.000000e+00
1.820000e+00 0.000000e+00 0.000000e+00
1.830000e+00 0.000000e+00 0.000000e+00
1.840000e+00 0.000000e+00 0.000000e+00
1.850000e+00 0.000000e+00 0.000000e+00
1.860000e+00 0.000000e+00 0.000000e+00
1.870000e+00 0.000000e+00 0.000000e+00
1.880000e+00 0.000000e+00 0.000000e+00
1.890000e+00 0.000000e+00 0.000000e+00
1.900000e+00 0.000000e+00 0.000000e+00
1.910000e+00 0.000000e+00 0.000000e+00
1.920000e+00 0.000000e+00 0.000000e+00
1.930000e+00 0.000000e+00 0.000000e+00
1.940000e+00 0.000000e+00 0.000000e+00
1.950000e+00 0.000000e+00 0.000000e+00
1.960000e+00 0.000000e+00 0.000000e+00
1.970000e+00 0.000000e+00 0.000000e+00
1.980000e+00 0.000000e+00 0.000000e+00
1.990000e+00 0.000000e+00 0.000000e+00
2.000000e+00 0.000000e+00 0.000000e+00
2.010000e+00 0.000000e+00 0.000000e+00
2.020000e+00 0.000000e+00 0.000000e+00
2.030000e+00 0.000000e+00 0.000000e+00
2.040000e+00 0.000000e+00 0.000000e+00
2.050000e+00 0.000000e+00 0.000000e+00
2.060000e+00 0.000000e+00 0.000000e+00
2.070000e+00 0.000000e+00 0.000000e+00
2.080000e+00 0.000000e+00 0.000000e+00
2.090000e+00 0.000000e+00 0.000000e+00
2.100000e+00 0.000000e+00 0.000000e+00
2.110000e+00 0.000000e+00 0.000000e+00
2.120000e+00 0.000000e+00 0.000000e+00
2.130000e+00 0.000000e+00 0.000000e+00
2.140000e+00 0.000000e+00 0.000000e+00
2.150000e+00 0.000000e+00 0.000000e+00
2.160000e+00 0.000000e+00 0.000000e+00
2.170000e+00 0.000000e+00 0.000000e+00
2.180000e+00 0.000000e+00 0.000000e+00
2.190000e+00 0.000000e+00 0.000000e+00
2.200000e+00 0.000000e+00 0.000000e+00
2.210000e+00 0.000000e+00 0.000000e+00
2.220000e+00 0.000000e+00 0.000000e+00
2.230000e+00 0.000000e+00 0.000000e+00
2.240000e+00 0.000000e+00 0.000000e+00
2.250000e+00 0.000000e+00 0.000000e+00
2.260000e+00 0.000000e+00 0.000000e+00
2.270000e+00 0.000000e+00 0.000000e+00
2.280000e+00 0.000000e+00 0.000000e+00
2.290000e+00 0.000000e+00 0.000000e+00
2.300000e+00 0.000000e+00 0.000000e+00
2.310000e+00 0.000000e+00 0.000000e+00
2.320000e+00 0.000000e+00 0.000000e+00
2.330000e+00 0.000000e+00 0.000000e+00
2.340000e+00 0.000000e+00 0.000000e+00
2.350000e+00 0.000000e+00 0.000000e+00
2.360000e+00 0.000000e+00 0.000000e+00
2.370000e+00 0.000000e+00 0.000000e+00
2.380000e+00 0.000000e+00 0.000000e+00
2.390000e+00 0.000000e+00 0.000000e+00
2.400000e+00 0.000000e+00 0.000000e+00
2.410000e+00 0.000000e+00 0.000000e+00
2.420000e+00 0.000000e+00 0.000000e+00
2.430000e+00 0.000000e+00 0.000000e+00
2.440000e+00 0.000000e+00 0.000000e+00
2.450000e+00 0.000000e+00 0.000000e+00
2.460000e+00 0.000000e+00 0.000000e+00
2.470000e+00 0.000000e+00 0.000000e+00
2.480000e+00 0.000000e+00 0.000000e+00
2.490000e+00 0.000000e+00 0.000000e+00
2.500000e+00 0.000000e+00 0.000000e+00
2.510000e+00 0.000000e+00 0.000000e+00
2.520000e+00 0.000000e+00 0.000000e+00
2.530000e+00 0.000000e+00 0.000000e+00
[...]
POINT_DATA 501
SCALARS vm float 1
LOOKUP_TABLE default
-8.107017e+01
-8.107010e+01
-8.106994e+01
-8.106971e+01
-8.106940e+01
-8.106895e+01
-8.106850e+01
-8.106798e+01
-8.106740e+01
-8.106675e+01
-8.106604e+01
-8.106526e+01
-8.106441e+01
-8.106351e+01
-8.106254e+01
-8.106150e+01
-8.106041e+01
-8.105925e+01
-8.105803e+01
-8.105675e+01
-8.105541e+01
-8.105401e+01
-8.105255e+01
-8.105103e+01
-8.104945e+01
-8.104782e+01
-8.104612e+01
-8.104437e+01
-8.104255e+01
-8.104068e+01
-8.103876e+01
-8.103677e+01
-8.103473e+01
-8.103263e+01
-8.103048e+01
-8.102827e+01
-8.102600e+01
-8.102368e+01
-8.102130e+01
-8.101886e+01
-8.101638e+01
-8.101383e+01
-8.101123e+01
-8.100858e+01
-8.100587e+01
-8.100311e+01
-8.100029e+01
-8.099742e+01
-8.099450e+01
-8.099152e+01
-8.098849e+01
-8.098540e+01
-8.098226e+01
-8.097907e+01
-8.097582e+01
-8.097253e+01
-8.096918e+01
-8.096577e+01
-8.096232e+01
-8.095881e+01
-8.095525e+01
-8.095164e+01
-8.094797e+01
-8.094426e+01
-8.094049e+01
-8.093667e+01
-8.093280e+01
-8.092888e+01
-8.092490e+01
-8.092088e+01
-8.091680e+01
-8.091268e+01
-8.090850e+01
-8.090427e+01
-8.089999e+01
-8.089566e+01
-8.089129e+01
-8.088686e+01
-8.088238e+01
-8.087785e+01
-8.087327e+01
-8.086864e+01
-8.086396e+01
-8.085923e+01
-8.085446e+01
-8.084963e+01
-8.084475e+01
-8.083983e+01
-8.083486e+01
-8.082983e+01
-8.082476e+01
-8.081964e+01
-8.081448e+01
-8.080926e+01
-8.080399e+01
-8.079868e+01
-8.079332e+01
-8.078791e+01
-8.078246e+01
-8.077695e+01
-8.077140e+01
-8.076580e+01
-8.076016e+01
-8.075447e+01
-8.074873e+01
-8.074294e+01
-8.073711e+01
-8.073123e+01
-8.072530e+01
-8.071933e+01
-8.071331e+01
-8.070724e+01
-8.070113e+01
-8.069498e+01
-8.068877e+01
-8.068253e+01
-8.067623e+01
-8.066990e+01
-8.066351e+01
-8.065708e+01
-8.065061e+01
-8.064409e+01
-8.063753e+01
-8.063092e+01
-8.062427e+01
-8.061758e+01
-8.061084e+01
-8.060405e+01
-8.059723e+01
-8.059036e+01
-8.058344e+01
-8.057649e+01
-8.056949e+01
-8.056244e+01
-8.055536e+01
-8.054823e+01
-8.054106e+01
-8.053385e+01
-8.052659e+01
-8.051929e+01
-8.051195e+01
-8.050457e+01
-8.049715e+01
-8.048969e+01
-8.048218e+01
-8.047464e+01
-8.046705e+01
-8.045942e+01
-8.045176e+01
-8.044405e+01
-8.043630e+01
-8.042851e+01
-8.042069e+01
-8.041282e+01
-8.040491e+01
-8.039697e+01
-8.038898e+01
-8.038096e+01
-8.037290e+01
-8.036480e+01
-8.035666e+01
-8.034848e+01
-8.034027e+01
-8.033202e+01
-8.032373e+01
-8.031540e+01
-8.030704e+01
-8.029864e+01
-8.029020e+01
-8.028173e+01
-8.027322e+01
-8.026467e+01
-8.025609e+01
-8.024747e+01
-8.023882e+01
-8.023013e+01
-8.022141e+01
-8.021265e+01
-8.020386e+01
-8.019504e+01
-8.018618e+01
-8.017728e+01
-8.016836e+01
-8.015940e+01
-8.015040e+01
-8.014138e+01
-8.013232e+01
-8.012322e+01
-8.011410e+01
-8.010495e+01
-8.009576e+01
-8.008654e+01
-8.007729e+01
-8.006801e+01
-8.005870e+01
-8.004936e+01
-8.003999e+01
-8.003059e+01
-8.002116e+01
-8.001170e+01
-8.000221e+01
-7.999269e+01
-7.998314e+01
-7.997357e+01
-7.996397e+01
-7.995434e+01
-7.994468e+01
-7.993499e+01
-7.992528e+01
-7.991554e+01
-7.990578e+01
-7.989599e+01
-7.988617e+01
-7.987633e+01
-7.986646e+01
-7.985657e+01
-7.984666e+01
-7.983672e+01
-7.982675e+01
-7.981676e+01
-7.980675e+01
-7.979672e+01
-7.978666e+01
-7.977658e+01
-7.976648e+01
-7.975636e+01
-7.974622e+01
-7.973605e+01
-7.972587e+01
-7.971566e+01
-7.970543e+01
-7.969519e+01
-7.968492e+01
-7.967464e+01
-7.966433e+01
-7.965401e+01
-7.964367e+01
-7.963331e+01
-7.962294e+01
-7.961255e+01
-7.960214e+01
-7.959171e+01
-7.958127e+01
-7.957081e+01
-7.956034e+01
-7.954986e+01
-7.953935e+01
-7.952884e+01
-7.951831e+01
-7.950777e+01
-7.949721e+01
-7.948664e+01
-7.947606e+01
-7.946547e+01
-7.945486e+01
-7.944425e+01
-7.943362e+01
-7.942299e+01
-7.941234e+01
-7.940168e+01
-7.939102e+01
-7.938034e+01
-7.936966e+01
-7.935897e+01
-7.934827e+01
-7.933757e+01
-7.932685e+01
-7.931613e+01
-7.930541e+01
-7.929468e+01
-7.928394e+01
-7.927320e+01
-7.926246e+01
-7.925171e+01
-7.924096e+01
-7.923020e+01
-7.921944e+01
-7.920868e+01
-7.919792e+01
-7.918715e+01
-7.917639e+01
-7.916562e+01
-7.915486e+01
-7.914409e+01
-7.913333e+01
-7.912256e+01
-7.911180e+01
-7.910104e+01
-7.909029e+01
-7.907953e+01
-7.906878e+01
-7.905803e+01
-7.904729e+01
-7.903655e+01
-7.902582e+01
-7.901509e+01
-7.900437e+01
-7.899366e+01
-7.898295e+01
-7.897225e+01
-7.896155e+01
-7.895087e+01
-7.894020e+01
-7.892953e+01
-7.891888e+01
-7.890823e+01
-7.889759e+01
-7.888697e+01
-7.887636e+01
-7.886576e+01
-7.885517e+01
-7.884460e+01
-7.883404e+01
-7.882349e+01
-7.881296e+01
-7.880244e+01
-7.879194e+01
-7.878145e+01
-7.877099e+01
-7.876053e+01
-7.875010e+01
-7.873968e+01
-7.872928e+01
-7.871890e+01
-7.870854e+01
-7.869820e+01
-7.868788e+01
-7.867758e+01
-7.866731e+01
-7.865705e+01
-7.864681e+01
-7.863660e+01
-7.862642e+01
-7.861625e+01
-7.860611e+01
-7.859600e+01
-7.858591e+01
-7.857584e+01
-7.856580e+01
-7.855579e+01
-7.854581e+01
-7.853585e+01
-7.852593e+01
-7.851603e+01
-7.850616e+01
-7.849632e+01
-7.848650e+01
-7.847673e+01
-7.846698e+01
-7.845726e+01
-7.844758e+01
-7.843792e+01
-7.842831e+01
-7.841872e+01
-7.840917e+01
-7.839965e+01
-7.839017e+01
-7.838073e+01
-7.837132e+01
-7.836195e+01
-7.835261e+01
-7.834331e+01
-7.833405e+01
-7.832483e+01
-7.831565e+01
-7.830651e+01
-7.829741e+01
-7.828835e+01
-7.827933e+01
-7.827035e+01
-7.826141e+01
-7.825252e+01
-7.824367e+01
-7.823486e+01
-7.822610e+01
-7.821738e+01
-7.820870e+01
-7.820008e+01
-7.819149e+01
-7.818296e+01
-7.817447e+01
-7.816603e+01
-7.815763e+01
-7.814929e+01
-7.814099e+01
-7.813274e+01
-7.812455e+01
-7.811640e+01
-7.810830e+01
-7.810026e+01
-7.809226e+01
-7.808432e+01
-7.807643e+01
-7.806860e+01
-7.806082e+01
-7.805309e+01
-7.804541e+01
-7.803779e+01
-7.803023e+01
-7.802272e+01
-7.801527e+01
-7.800788e+01
-7.800054e+01
-7.799326e+01
-7.798603e+01
-7.797887e+01
-7.797176e+01
-7.796472e+01
-7.795773e+01
-7.795081e+01
-7.794394e+01
-7.793714e+01
-7.793040e+01
-7.792371e+01
-7.791710e+01
-7.791054e+01
-7.790405e+01
-7.789762e+01
-7.789125e+01
-7.788495e+01
-7.787872e+01
-7.787255e+01
-7.786644e+01
-7.786040e+01
-7.785443e+01
-7.784852e+01
-7.784268e+01
-7.783691e+01
-7.783121e+01
-7.782557e+01
-7.782000e+01
-7.781451e+01
-7.780908e+01
-7.780372e+01
-7.779843e+01
-7.779321e+01
-7.778806e+01
-7.778299e+01
-7.777798e+01
-7.777305e+01
-7.776819e+01
-7.776340e+01
-7.775868e+01
-7.775404e+01
-7.774947e+01
-7.774498e+01
-7.774056e+01
-7.773621e+01
-7.773194e+01
-7.772774e+01
-7.772362e+01
-7.771957e+01
-7.771560e+01
-7.771171e+01
-7.770789e+01
-7.770415e+01
-7.770049e+01
-7.769690e+01
-7.769339e+01
-7.768996e+01
-7.768661e+01
-7.768333e+01
-7.768013e+01
-7.767702e+01
-7.767398e+01
-7.767102e+01
-7.766814e+01
-7.766533e+01
-7.766261e+01
-7.765997e+01
-7.765741e+01
-7.765493e+01
-7.765253e+01
-7.765021e+01
-7.764797e+01
-7.764581e+01
-7.764373e+01
-7.764173e+01
-7.763982e+01
-7.763798e+01
-7.763623e+01
-7.763456e+01
-7.763297e+01
-7.763146e+01
-7.763004e+01
-7.762870e+01
-7.762743e+01
-7.762626e+01
-7.762516e+01
-7.762415e+01
-7.762321e+01
-7.762237e+01
-7.762160e+01
-7.762092e+01
-7.762032e+01
-7.761981e+01
-7.761939e+01
-7.761904e+01
-7.761879e+01
-7.761861e+01
-7.761853e+01
