# vtk DataFile Version 3.0
Monodomain MVF
ASCII
DATASET POLYDATA
POINTS 501 float
0.000000e+00 0.000000e+00 0.000000e+00
1.000000e-02 0.000000e+00 0.000000e+00
2.000000e-02 0.000000e+00 0.000000e+00
3.000000e-02 0.000000e+00 0.000000e+00
4.000000e-02 0.000000e+00 0.000000e+00
5.000000e-02 0.000000e+00 0.000000e+00
6.000000e-02 0.000000e+00 0.000000e+00
7.000000e-02 0.000000e+00 0.000000e+00
8.000000e-02 0.000000e+00 0.000000e+00
9.000000e-02 0.000000e+00 0.000000e+00
1.000000e-01 0.000000e+00 0.000000e+00
1.100000e-01 0.000000e+00 0.000000e+00
1.200000e-01 0.000000e+00 0.000000e+00
1.300000e-01 0.000000e+00 0.000000e+00
1.400000e-01 0.000000e+00 0.000000e+00
1.500000e-01 0.000000e+00 0.000000e+00
1.600000e-01 0.000000e+00 0.000000e+00
1.700000e-01 0.000000e+00 0.000000e+00
1.800000e-01 0.000000e+00 0.000000e+00
1.900000e-01 0.000000e+00 0.000000e+00
2.000000e-01 0.000000e+00 0.000000e+00
2.100000e-01 0.000000e+00 0.000000e+00
2.200000e-01 0.000000e+00 0.000000e+00
2.300000e-01 0.000000e+00 0.000000e+00
2.400000e-01 0.000000e+00 0.000000e+00
2.500000e-01 0.000000e+00 0.000000e+00
2.600000e-01 0.000000e+00 0.000000e+00
2.700000e-01 0.000000e+00 0.000000e+00
2.800000e-01 0.000000e+00 0.000000e+00
2.900000e-01 0.000000e+00 0.000000e+00
3.000000e-01 0.000000e+00 0.000000e+00
3.100000e-01 0.000000e+00 0.000000e+00
3.200000e-01 0.000000e+00 0.000000e+00
3.300000e-01 0.000000e+00 0.000000e+00
3.400000e-01 0.000000e+00 0.000000e+00
3.500000e-01 0.000000e+00 0.000000e+00
3.600000e-01 0.000000e+00 0.000000e+00
3.700000e-01 0.000000e+00 0.000000e+00
3.800000e-01 0.000000e+00 0.000000e+00
3.900000e-01 0.000000e+00 0.000000e+00
4.000000e-01 0.000000e+00 0.000000e+00
4.100000e-01 0.000000e+00 0.000000e+00
4.200000e-01 0.000000e+00 0.000000e+00
4.300000e-01 0.000000e+00 0.000000e+00
4.400000e-01 0.000000e+00 0.000000e+00
4.500000e-01 0.000000e+00 0.000000e+00
4.600000e-01 0.000000e+00 0.000000e+00
4.700000e-01 0.000000e+00 0.000000e+00
4.800000e-01 0.000000e+00 0.000000e+00
4.900000e-01 0.000000e+00 0.000000e+00
5.000000e-01 0.000000e+00 0.000000e+00
5.100000e-01 0.000000e+00 0.000000e+00
5.200000e-01 0.000000e+00 0.000000e+00
5.300000e-01 0.000000e+00 0.000000e+00
5.400000e-01 0.000000e+00 0.000000e+00
5.500000e-01 0.000000e+00 0.000000e+00
5.600000e-01 0.000000e+00 0.000000e+00
5.700000e-01 0.000000e+00 0.000000e+00
5.800000e-01 0.000000e+00 0.000000e+00
5.900000e-01 0.000000e+00 0.000000e+00
6.000000e-01 0.000000e+00 0.000000e+00
6.100000e-01 0.000000e+00 0.000000e+00
6.200000e-01 0.000000e+00 0.000000e+00
6.300000e-01 0.000000e+00 0.000000e+00
6.400000e-01 0.000000e+00 0.000000e+00
6.500000e-01 0.000000e+00 0.000000e+00
6.600000e-01 0.000000e+00 0.000000e+00
6.700000e-01 0.000000e+00 0.000000e+00
6.800000e-01 0.000000e+00 0.000000e+00
6.900000e-01 0.000000e+00 0.000000e+00
7.000000e-01 0.000000e+00 0.000000e+00
7.100000e-01 0.000000e+00 0.000000e+00
7.200000e-01 0.000000e+00 0.000000e+00
7.300000e-01 0.000000e+00 0.000000e+00
7.400000e-01 0.000000e+00 0.000000e+00
7.500000e-01 0.000000e+00 0.000000e+00
7.600000e-01 0.000000e+00 0.000000e+00
7.700000e-01 0.000000e+00 0.000000e+00
7.800000e-01 0.000000e+00 0.000000e+00
7.900000e-01 0.000000e+00 0.000000e+00
8.000000e-01 0.000000e+00 0.000000e+00
8.100000e-01 0.000000e+00 0.000000e+00
8.200000e-01 0.000000e+00 0.000000e+00
8.300000e-01 0.000000e+00 0.000000e+00
8.400000e-01 0.000000e+00 0.000000e+00
8.500000e-01 0.000000e+00 0.000000e+00
8.600000e-01 0.000000e+00 0.000000e+00
8.700000e-01 0.000000e+00 0.000000e+00
8.800000e-01 0.000000e+00 0.000000e+00
8.900000e-01 0.000000e+00 0.000000e+00
9.000000e-01 0.000000e+00 0.000000e+00
9.100000e-01 0.000000e+00 0.000000e+00
9.200000e-01 0.000000e+00 0.000000e+00
9.300000e-01 0.000000e+00 0.000000e+00
9.400000e-01 0.000000e+00 0.000000e+00
9.500000e-01 0.000000e+00 0.000000e+00
9.600000e-01 0.000000e+00 0.000000e+00
9.700000e-01 0.000000e+00 0.000000e+00
9.800000e-01 0.000000e+00 0.000000e+00
9.900000e-01 0.000000e+00 0.000000e+00
1.000000e+00 0.000000e+00 0.000000e+00
1.010000e+00 0.000000e+00 0.000000e+00
1.020000e+00 0.000000e+00 0.000000e+00
1.030000e+00 0.000000e+00 0.000000e+00
1.040000e+00 0.000000e+00 0.000000e+00
1.050000e+00 0.000000e+00 0.000000e+00
1.060000e+00 0.000000e+00 0.000000e+00
1.070000e+00 0.000000e+00 0.000000e+00
1.080000e+00 0.000000e+00 0.000000e+00
1.090000e+00 0.000000e+00 0.000000e+00
1.100000e+00 0.000000e+00 0.000000e+00
1.110000e+00 0.000000e+00 0.000000e+00
1.120000e+00 0.000000e+00 0.000000e+00
1.130000e+00 0.000000e+00 0.000000e+00
1.140000e+00 0.000000e+00 0.000000e+00
1.150000e+00 0.000000e+00 0.000000e+00
1.160000e+00 0.000000e+00 0.000000e+00
1.170000e+00 0.000000e+00 0.000000e+00
1.180000e+00 0.000000e+00 0.000000e+00
1.190000e+00 0.000000e+00 0.000000e+00
1.200000e+00 0.000000e+00 0.000000e+00
1.210000e+00 0.000000e+00 0.000000e+00
1.220000e+00 0.000000e+00 0.000000e+00
1.230000e+00 0.000000e+00 0.000000e+00
1.240000e+00 0.000000e+00 0.000000e+00
1.250000e+00 0.000000e+00 0.000000e+00
1.260000e+00 0.000000e+00 0.000000e+00
1.270000e+00 0.000000e+00 0.000000e+00
1.280000e+00 0.000000e+00 0.000000e+00
1.290000e+00 0.000000e+00 0.000000e+00
1.300000e+00 0.000000e+00 0.000000e+00
1.310000e+00 0.000000e+00 0.000000e+00
1.320000e+00 0.000000e+00 0.000000e+00
1.330000e+00 0.000000e+00 0.000000e+00
1.340000e+00 0.000000e+00 0.000000e+00
1.350000e+00 0.000000e+00 0.000000e+00
1.360000e+00 0.000000e+00 0.000000e+00
1.370000e+00 0.000000e+00 0.000000e+00
1.380000e+00 0.000000e+00 0.000000e+00
1.390000e+00 0.000000e+00 0.000000e+00
1.400000e+00 0.000000e+00 0.000000e+00
1.410000e+00 0.000000e+00 0.000000e+00
1.420000e+00 0.000000e+00 0.000000e+00
1.430000e+00 0.000000e+00 0.000000e+00
1.440000e+00 0.000000e+00 0.000000e+00
1.450000e+00 0.000000e+00 0.000000e+00
1.460000e+00 0.000000e+00 0.000000e+00
1.470000e+00 0.000000e+00 0.000000e+00
1.480000e+00 0.000000e+00 0.000000e+00
1.490000e+00 0.000000e+00 0.000000e+00
1.500000e+00 0.000000e+00 0.000000e+00
1.510000e+00 0.000000e+00 0.000000e+00
1.520000e+00 0.000000e+00 0.000000e+00
1.530000e+00 0.000000e+00 0.000000e+00
1.540000e+00 0.000000e+00 0.000000e+00
1.550000e+00 0.000000e+00 0.000000e+00
1.560000e+00 0.000000e+00 0.000000e+00
1.570000e+00 0.000000e+00 0.000000e+00
1.580000e+00 0.000000e+00 0.000000e+00
1.590000e+00 0.000000e+00 0.000000e+00
1.600000e+00 0.000000e+00 0.000000e+00
1.610000e+00 0.000000e+00 0.000000e+00
1.620000e+00 0.000000e+00 0.000000e+00
1.630000e+00 0.000000e+00 0.000000e+00
1.640000e+00 0.000000e+00 0.000000e+00
1.650000e+00 0.000000e+00 0.000000e+00
1.660000e+00 0.000000e+00 0.000000e+00
1.670000e+00 0.000000e+00 0.000000e+00
1.680000e+00 0.000000e+00 0.000000e+00
1.690000e+00 0.000000e+00 0.000000e+00
1.700000e+00 0.000000e+00 0.000000e+00
1.710000e+00 0.000000e+00 0.000000e+00
1.720000e+00 0.000000e+00 0.000000e+00
1.730000e+00 0.000000e+00 0.000000e+00
1.740000e+00 0.000000e+00 0.000000e+00
1.750000e+00 0.000000e+00 0.000000e+00
1.760000e+00 0.000000e+00 0.000000e+00
1.770000e+00 0.000000e+00 0.000000e+00
1.780000e+00 0.000000e+00 0.000000e+00
1.790000e+00 0.000000e+00 0.000000e+00
1.800000e+00 0.000000e+00 0.000000e+00
1.810000e+00 0.000000e+00 0.000000e+00
1.820000e+00 0.000000e+00 0.000000e+00
1.830000e+00 0.000000e+00 0.000000e+00
1.840000e+00 0.000000e+00 0.000000e+00
1.850000e+00 0.000000e+00 0.000000e+00
1.860000e+00 0.000000e+00 0.000000e+00
1.870000e+00 0.000000e+00 0.000000e+00
1.880000e+00 0.000000e+00 0.000000e+00
1.890000e+00 0.000000e+00 0.000000e+00
1.900000e+00 0.000000e+00 0.000000e+00
1.910000e+00 0.000000e+00 0.000000e+00
1.920000e+00 0.000000e+00 0.000000e+00
1.930000e+00 0.000000e+00 0.000000e+00
1.940000e+00 0.000000e+00 0.000000e+00
1.950000e+00 0.000000e+00 0.000000e+00
1.960000e+00 0.000000e+00 0.000000e+00
1.970000e+00 0.000000e+00 0.000000e+00
1.980000e+00 0.000000e+00 0.000000e+00
1.990000e+00 0.000000e+00 0.000000e+00
2.000000e+00 0.000000e+00 0.000000e+00
2.010000e+00 0.000000e+00 0.000000e+00
2.020000e+00 0.000000e+00 0.000000e+00
2.030000e+00 0.000000e+00 0.000000e+00
2.040000e+00 0.000000e+00 0.000000e+00
2.050000e+00 0.000000e+00 0.000000e+00
2.060000e+00 0.000000e+00 0.000000e+00
2.070000e+00 0.000000e+00 0.000000e+00
2.080000e+00 0.000000e+00 0.000000e+00
2.090000e+00 0.000000e+00 0.000000e+00
2.100000e+00 0.000000e+00 0.000000e+00
2.110000e+00 0.000000e+00 0.000000e+00
2.120000e+00 0.000000e+00 0.000000e+00
2.130000e+00 0.000000e+00 0.000000e+00
2.140000e+00 0.000000e+00 0.000000e+00
2.150000e+00 0.000000e+00 0.000000e+00
2.160000e+00 0.000000e+00 0.000000e+00
2.170000e+00 0.000000e+00 0.000000e+00
2.180000e+00 0.000000e+00 0.000000e+00
2.190000e+00 0.000000e+00 0.000000e+00
2.200000e+00 0.000000e+00 0.000000e+00
2.210000e+00 0.000000e+00 0.000000e+00
2.220000e+00 0.000000e+00 0.000000e+00
2.230000e+00 0.000000e+00 0.000000e+00
2.240000e+00 0.000000e+00 0.000000e+00
2.250000e+00 0.000000e+00 0.000000e+00
2.260000e+00 0.000000e+00 0.000000e+00
2.270000e+00 0.000000e+00 0.000000e+00
2.280000e+00 0.000000e+00 0.000000e+00
2.290000e+00 0.000000e+00 0.000000e+00
2.300000e+00 0.000000e+00 0.000000e+00
2.310000e+00 0.000000e+00 0.000000e+00
2.320000e+00 0.000000e+00 0.000000e+00
2.330000e+00 0.000000e+00 0.000000e+00
2.340000e+00 0.000000e+00 0.000000e+00
2.350000e+00 0.000000e+00 0.000000e+00
2.360000e+00 0.000000e+00 0.000000e+00
2.370000e+00 0.000000e+00 0.000000e+00
2.380000e+00 0.000000e+00 0.000000e+00
2.390000e+00 0.000000e+00 0.000000e+00
2.400000e+00 0.000000e+00 0.000000e+00
2.410000e+00 0.000000e+00 0.000000e+00
2.420000e+00 0.000000e+00 0.000000e+00
2.430000e+00 0.000000e+00 0.000000e+00
2.440000e+00 0.000000e+00 0.000000e+00
2.450000e+00 0.000000e+00 0.000000e+00
2.460000e+00 0.000000e+00 0.000000e+00
2.470000e+00 0.000000e+00 0.000000e+00
2.480000e+00 0.000000e+00 0.000000e+00
2.490000e+00 0.000000e+00 0.000000e+00
2.500000e+00 0.000000e+00 0.000000e+00
2.510000e+00 0.000000e+00 0.000000e+00
2.520000e+00 0.000000e+00 0.000000e+00
2.530000e+00 0.000000e+00 0.000000e+00
[...]
POINT_DATA 501
SCALARS vm float 1
LOOKUP_TABLE default
-5.071235e+00
-5.070964e+00
-5.070424e+00
-5.069622e+00
-5.068569e+00
-5.067253e+00
-5.065752e+00
-5.064068e+00
-5.062203e+00
-5.060165e+00
-5.057966e+00
-5.055609e+00
-5.053103e+00
-5.050457e+00
-5.047671e+00
-5.044756e+00
-5.041718e+00
-5.038558e+00
-5.035284e+00
-5.031905e+00
-5.028417e+00
-5.024831e+00
-5.021154e+00
-5.017381e+00
-5.013523e+00
-5.009586e+00
-5.005566e+00
-5.001471e+00
-4.997308e+00
-4.993074e+00
-4.988774e+00
-4.984415e+00
-4.979994e+00
-4.975520e+00
-4.970989e+00
-4.966406e+00
-4.961779e+00
-4.957100e+00
-4.952378e+00
-4.947617e+00
-4.942813e+00
-4.937970e+00
-4.933094e+00
-4.928181e+00
-4.923239e+00
-4.918262e+00
-4.913255e+00
-4.908224e+00
-4.903162e+00
-4.898074e+00
-4.892967e+00
-4.887833e+00
-4.882680e+00
-4.877504e+00
-4.872309e+00
-4.867100e+00
-4.861868e+00
-4.856620e+00
-4.851360e+00
-4.846082e+00
-4.840790e+00
-4.835488e+00
-4.830170e+00
-4.824845e+00
-4.819504e+00
-4.814153e+00
-4.808797e+00
-4.803427e+00
-4.798049e+00
-4.792666e+00
-4.787272e+00
-4.781873e+00
-4.776466e+00
-4.771052e+00
-4.765637e+00
-4.760211e+00
-4.754780e+00
-4.749349e+00
-4.743910e+00
-4.738467e+00
-4.733022e+00
-4.727572e+00
-4.722122e+00
-4.716665e+00
-4.711205e+00
-4.705748e+00
-4.700283e+00
-4.694817e+00
-4.689352e+00
-4.683883e+00
-4.678415e+00
-4.672943e+00
-4.667469e+00
-4.662000e+00
-4.656524e+00
-4.651048e+00
-4.645574e+00
-4.640097e+00
-4.634623e+00
-4.629146e+00
-4.623668e+00
-4.618195e+00
-4.612716e+00
-4.607238e+00
-4.601764e+00
-4.596287e+00
-4.590810e+00
-4.585337e+00
-4.579861e+00
-4.574389e+00
-4.568913e+00
-4.563438e+00
-4.557969e+00
-4.552495e+00
-4.547022e+00
-4.541553e+00
-4.536082e+00
-4.530615e+00
-4.525145e+00
-4.519676e+00
-4.514212e+00
-4.508744e+00
-4.503278e+00
-4.497816e+00
-4.492351e+00
-4.486889e+00
-4.481427e+00
-4.475965e+00
-4.470509e+00
-4.465048e+00
-4.459588e+00
-4.454134e+00
-4.448676e+00
-4.443219e+00
-4.437767e+00
-4.432312e+00
-4.426862e+00
-4.421408e+00
-4.415956e+00
-4.410509e+00
-4.405058e+00
-4.399608e+00
-4.394162e+00
-4.388714e+00
-4.383271e+00
-4.377824e+00
-4.372378e+00
-4.366938e+00
-4.361493e+00
-4.356050e+00
-4.350611e+00
-4.345169e+00
-4.339730e+00
-4.334291e+00
-4.328851e+00
-4.323416e+00
-4.317977e+00
-4.312539e+00
-4.307106e+00
-4.301669e+00
-4.296234e+00
-4.290801e+00
-4.285367e+00
-4.279937e+00
-4.274503e+00
-4.269070e+00
-4.263641e+00
-4.258209e+00
-4.252777e+00
-4.247350e+00
-4.241919e+00
-4.236492e+00
-4.231063e+00
-4.225634e+00
-4.220210e+00
-4.214780e+00
-4.209352e+00
-4.203928e+00
-4.198501e+00
-4.193076e+00
-4.187651e+00
-4.182224e+00
-4.176803e+00
-4.171376e+00
-4.165951e+00
-4.160530e+00
-4.155104e+00
-4.149680e+00
-4.144258e+00
-4.138834e+00
-4.133414e+00
-4.127990e+00
-4.122566e+00
-4.117147e+00
-4.111723e+00
-4.106299e+00
-4.100879e+00
-4.095457e+00
-4.090036e+00
-4.084614e+00
-4.079191e+00
-4.073773e+00
-4.068350e+00
-4.062927e+00
-4.057508e+00
-4.052085e+00
-4.046665e+00
-4.041243e+00
-4.035821e+00
-4.030402e+00
-4.024979e+00
-4.019556e+00
-4.014138e+00
-4.008715e+00
-4.003292e+00
-3.997872e+00
-3.992449e+00
-3.987030e+00
-3.981606e+00
-3.976183e+00
-3.970764e+00
-3.965340e+00
-3.959916e+00
-3.954495e+00
-3.949072e+00
-3.943650e+00
-3.938226e+00
-3.932802e+00
-3.927382e+00
-3.921956e+00
-3.916531e+00
-3.911109e+00
-3.905684e+00
-3.900260e+00
-3.894836e+00
-3.889410e+00
-3.883987e+00
-3.878560e+00
-3.873133e+00
-3.867710e+00
-3.862283e+00
-3.856855e+00
-3.851430e+00
-3.846003e+00
-3.840578e+00
-3.835149e+00
-3.829720e+00
-3.824295e+00
-3.818865e+00
-3.813435e+00
-3.808008e+00
-3.802578e+00
-3.797150e+00
-3.791720e+00
-3.786289e+00
-3.780862e+00
-3.775429e+00
-3.769997e+00
-3.764568e+00
-3.759135e+00
-3.753703e+00
-3.748272e+00
-3.742838e+00
-3.737408e+00
-3.731973e+00
-3.726538e+00
-3.721107e+00
-3.715672e+00
-3.710236e+00
-3.704803e+00
-3.699367e+00
-3.693934e+00
-3.688497e+00
-3.683060e+00
-3.677627e+00
-3.672188e+00
-3.666750e+00
-3.661315e+00
-3.655877e+00
-3.650440e+00
-3.645002e+00
-3.639562e+00
-3.634127e+00
-3.628686e+00
-3.623246e+00
-3.617809e+00
-3.612368e+00
-3.606927e+00
-3.601489e+00
-3.596048e+00
-3.590610e+00
-3.585167e+00
-3.579725e+00
-3.574287e+00
-3.568844e+00
-3.563401e+00
-3.557962e+00
-3.552519e+00
-3.547079e+00
-3.541636e+00
-3.536193e+00
-3.530754e+00
-3.525310e+00
-3.519866e+00
-3.514425e+00
-3.508982e+00
-3.503540e+00
-3.498097e+00
-3.492654e+00
-3.487214e+00
-3.481770e+00
-3.476326e+00
-3.470886e+00
-3.465443e+00
-3.459999e+00
-3.454559e+00
-3.449116e+00
-3.443677e+00
-3.438234e+00
-3.432791e+00
-3.427353e+00
-3.421910e+00
-3.416468e+00
-3.411030e+00
-3.405590e+00
-3.400152e+00
-3.394712e+00
-3.389272e+00
-3.383837e+00
-3.378398e+00
-3.372959e+00
-3.367525e+00
-3.362088e+00
-3.356654e+00
-3.351219e+00
-3.345784e+00
-3.340354e+00
-3.334920e+00
-3.329487e+00
-3.324060e+00
-3.318629e+00
-3.313200e+00
-3.307774e+00
-3.302347e+00
-3.296924e+00
-3.291499e+00
-3.286075e+00
-3.280657e+00
-3.275236e+00
-3.269816e+00
-3.264401e+00
-3.258985e+00
-3.253573e+00
-3.248161e+00
-3.242750e+00
-3.237345e+00
-3.231937e+00
-3.226532e+00
-3.221132e+00
-3.215732e+00
-3.210335e+00
-3.204940e+00
-3.199547e+00
-3.194160e+00
-3.188771e+00
-3.183386e+00
-3.178007e+00
-3.172628e+00
-3.167251e+00
-3.161881e+00
-3.156512e+00
-3.151149e+00
-3.145786e+00
-3.140428e+00
-3.135077e+00
-3.129725e+00
-3.124378e+00
-3.119039e+00
-3.113702e+00
-3.108370e+00
-3.103042e+00
-3.097719e+00
-3.092404e+00
-3.087090e+00
-3.081782e+00
-3.076483e+00
-3.071187e+00
-3.065898e+00
-3.060615e+00
-3.055338e+00
-3.050070e+00
-3.044805e+00
-3.039548e+00
-3.034301e+00
-3.029059e+00
-3.023824e+00
-3.018600e+00
-3.013382e+00
-3.008175e+00
-3.002974e+00
-2.997782e+00
-2.992603e+00
-2.987429e+00
-2.982265e+00
-2.977116e+00
-2.971974e+00
-2.966844e+00
-2.961724e+00
-2.956616e+00
-2.951522e+00
-2.946437e+00
-2.941364e+00
-2.936309e+00
-2.931263e+00
-2.926232e+00
-2.921215e+00
-2.916213e+00
-2.911228e+00
-2.906255e+00
-2.901298e+00
-2.896361e+00
-2.891437e+00
-2.886530e+00
-2.881645e+00
-2.876776e+00
-2.871927e+00
-2.867095e+00
-2.862284e+00
-2.857497e+00
-2.852726e+00
-2.847977e+00
-2.843255e+00
-2.838553e+00
-2.833875e+00
-2.829221e+00
-2.824591e+00
-2.819990e+00
-2.815412e+00
-2.810861e+00
-2.806342e+00
-2.801848e+00
-2.797384e+00
-2.792950e+00
-2.788547e+00
-2.784179e+00
-2.779839e+00
-2.775534e+00
-2.771267e+00
-2.767031e+00
-2.762832e+00
-2.758673e+00
-2.754551e+00
-2.750469e+00
-2.746426e+00
-2.742424e+00
-2.738468e+00
-2.734552e+00
-2.730681e+00
-2.726859e+00
-2.723082e+00
-2.719354e+00
-2.715674e+00
-2.712046e+00
-2.708473e+00
-2.704949e+00
-2.701481e+00
-2.698072e+00
-2.694718e+00
-2.691424e+00
-2.688191e+00
-2.685020e+00
-2.681915e+00
-2.678871e+00
-2.675896e+00
-2.672993e+00
-2.670157e+00
-2.667393e+00
-2.664707e+00
-2.662096e+00
-2.659564e+00
-2.657110e+00
-2.654741e+00
-2.652459e+00
-2.650261e+00
-2.648153e+00
-2.646142e+00
-2.644224e+00
-2.642404e+00
-2.640689e+00
-2.639080e+00
-2.637578e+00
-2.636190e+00
-2.634924e+00
-2.633773e+00
-2.632750e+00
-2.631864e+00
-2.631129e+00
-2.630529e+00
-2.630068e+00
-2.629754e+00
-2.629595e+00
