# vtk DataFile Version 3.0
Monodomain MVF
ASCII
DATASET POLYDATA
POINTS 501 float
0.000000e+00 0.000000e+00 0.000000e+00
1.000000e-02 0.000000e+00 0.000000e+00
2.000000e-02 0.000000e+00 0.000000e+00
3.000000e-02 0.000000e+00 0.000000e+00
4.000000e-02 0.000000e+00 0.000000e+00
5.000000e-02 0.000000e+00 0.000000e+00
6.000000e-02 0.000000e+00 0.000000e+00
7.000000e-02 0.000000e+00 0.000000e+00
8.000000e-02 0.000000e+00 0.000000e+00
9.000000e-02 0.000000e+00 0.000000e+00
1.000000e-01 0.000000e+00 0.000000e+00
1.100000e-01 0.000000e+00 0.000000e+00
1.200000e-01 0.000000e+00 0.000000e+00
1.300000e-01 0.000000e+00 0.000000e+00
1.400000e-01 0.000000e+00 0.000000e+00
1.500000e-01 0.000000e+00 0.000000e+00
1.600000e-01 0.000000e+00 0.000000e+00
1.700000e-01 0.000000e+00 0.000000e+00
1.800000e-01 0.000000e+00 0.000000e+00
1.900000e-01 0.000000e+00 0.000000e+00
2.000000e-01 0.000000e+00 0.000000e+00
2.100000e-01 0.000000e+00 0.000000e+00
2.200000e-01 0.000000e+00 0.000000e+00
2.300000e-01 0.000000e+00 0.000000e+00
2.400000e-01 0.000000e+00 0.000000e+00
2.500000e-01 0.000000e+00 0.000000e+00
2.600000e-01 0.000000e+00 0.000000e+00
2.700000e-01 0.000000e+00 0.000000e+00
2.800000e-01 0.000000e+00 0.000000e+00
2.900000e-01 0.000000e+00 0.000000e+00
3.000000e-01 0.000000e+00 0.000000e+00
3.100000e-01 0.000000e+00 0.000000e+00
3.200000e-01 0.000000e+00 0.000000e+00
3.300000e-01 0.000000e+00 0.000000e+00
3.400000e-01 0.000000e+00 0.000000e+00
3.500000e-01 0.000000e+00 0.000000e+00
3.600000e-01 0.000000e+00 0.000000e+00
3.700000e-01 0.000000e+00 0.000000e+00
3.800000e-01 0.000000e+00 0.000000e+00
3.900000e-01 0.000000e+00 0.000000e+00
4.000000e-01 0.000000e+00 0.000000e+00
4.100000e-01 0.000000e+00 0.000000e+00
4.200000e-01 0.000000e+00 0.000000e+00
4.300000e-01 0.000000e+00 0.000000e+00
4.400000e-01 0.000000e+00 0.000000e+00
4.500000e-01 0.000000e+00 0.000000e+00
4.600000e-01 0.000000e+00 0.000000e+00
4.700000e-01 0.000000e+00 0.000000e+00
4.800000e-01 0.000000e+00 0.000000e+00
4.900000e-01 0.000000e+00 0.000000e+00
5.000000e-01 0.000000e+00 0.000000e+00
5.100000e-01 0.000000e+00 0.000000e+00
5.200000e-01 0.000000e+00 0.000000e+00
5.300000e-01 0.000000e+00 0.000000e+00
5.400000e-01 0.000000e+00 0.000000e+00
5.500000e-01 0.000000e+00 0.000000e+00
5.600000e-01 0.000000e+00 0.000000e+00
5.700000e-01 0.000000e+00 0.000000e+00
5.800000e-01 0.000000e+00 0.000000e+00
5.900000e-01 0.000000e+00 0.000000e+00
6.000000e-01 0.000000e+00 0.000000e+00
6.100000e-01 0.000000e+00 0.000000e+00
6.200000e-01 0.000000e+00 0.000000e+00
6.300000e-01 0.000000e+00 0.000000e+00
6.400000e-01 0.000000e+00 0.000000e+00
6.500000e-01 0.000000e+00 0.000000e+00
6.600000e-01 0.000000e+00 0.000000e+00
6.700000e-01 0.000000e+00 0.000000e+00
6.800000e-01 0.000000e+00 0.000000e+00
6.900000e-01 0.000000e+00 0.000000e+00
7.000000e-01 0.000000e+00 0.000000e+00
7.100000e-01 0.000000e+00 0.000000e+00
7.200000e-01 0.000000e+00 0.000000e+00
7.300000e-01 0.000000e+00 0.000000e+00
7.400000e-01 0.000000e+00 0.000000e+00
7.500000e-01 0.000000e+00 0.000000e+00
7.600000e-01 0.000000e+00 0.000000e+00
7.700000e-01 0.000000e+00 0.000000e+00
7.800000e-01 0.000000e+00 0.000000e+00
7.900000e-01 0.000000e+00 0.000000e+00
8.000000e-01 0.000000e+00 0.000000e+00
8.100000e-01 0.000000e+00 0.000000e+00
8.200000e-01 0.000000e+00 0.000000e+00
8.300000e-01 0.000000e+00 0.000000e+00
8.400000e-01 0.000000e+00 0.000000e+00
8.500000e-01 0.000000e+00 0.000000e+00
8.600000e-01 0.000000e+00 0.000000e+00
8.700000e-01 0.000000e+00 0.000000e+00
8.800000e-01 0.000000e+00 0.000000e+00
8.900000e-01 0.000000e+00 0.000000e+00
9.000000e-01 0.000000e+00 0.000000e+00
9.100000e-01 0.000000e+00 0.000000e+00
9.200000e-01 0.000000e+00 0.000000e+00
9.300000e-01 0.000000e+00 0.000000e+00
9.400000e-01 0.000000e+00 0.000000e+00
9.500000e-01 0.000000e+00 0.000000e+00
9.600000e-01 0.000000e+00 0.000000e+00
9.700000e-01 0.000000e+00 0.000000e+00
9.800000e-01 0.000000e+00 0.000000e+00
9.900000e-01 0.000000e+00 0.000000e+00
1.000000e+00 0.000000e+00 0.000000e+00
1.010000e+00 0.000000e+00 0.000000e+00
1.020000e+00 0.000000e+00 0.000000e+00
1.030000e+00 0.000000e+00 0.000000e+00
1.040000e+00 0.000000e+00 0.000000e+00
1.050000e+00 0.000000e+00 0.000000e+00
1.060000e+00 0.000000e+00 0.000000e+00
1.070000e+00 0.000000e+00 0.000000e+00
1.080000e+00 0.000000e+00 0.000000e+00
1.090000e+00 0.000000e+00 0.000000e+00
1.100000e+00 0.000000e+00 0.000000e+00
1.110000e+00 0.000000e+00 0.000000e+00
1.120000e+00 0.000000e+00 0.000000e+00
1.130000e+00 0.000000e+00 0.000000e+00
1.140000e+00 0.000000e+00 0.000000e+00
1.150000e+00 0.000000e+00 0.000000e+00
1.160000e+00 0.000000e+00 0.000000e+00
1.170000e+00 0.000000e+00 0.000000e+00
1.180000e+00 0.000000e+00 0.000000e+00
1.190000e+00 0.000000e+00 0.000000e+00
1.200000e+00 0.000000e+00 0.000000e+00
1.210000e+00 0.000000e+00 0.000000e+00
1.220000e+00 0.000000e+00 0.000000e+00
1.230000e+00 0.000000e+00 0.000000e+00
1.240000e+00 0.000000e+00 0.000000e+00
1.250000e+00 0.000000e+00 0.000000e+00
1.260000e+00 0.000000e+00 0.000000e+00
1.270000e+00 0.000000e+00 0.000000e+00
1.280000e+00 0.000000e+00 0.000000e+00
1.290000e+00 0.000000e+00 0.000000e+00
1.300000e+00 0.000000e+00 0.000000e+00
1.310000e+00 0.000000e+00 0.000000e+00
1.320000e+00 0.000000e+00 0.000000e+00
1.330000e+00 0.000000e+00 0.000000e+00
1.340000e+00 0.000000e+00 0.000000e+00
1.350000e+00 0.000000e+00 0.000000e+00
1.360000e+00 0.000000e+00 0.000000e+00
1.370000e+00 0.000000e+00 0.000000e+00
1.380000e+00 0.000000e+00 0.000000e+00
1.390000e+00 0.000000e+00 0.000000e+00
1.400000e+00 0.000000e+00 0.000000e+00
1.410000e+00 0.000000e+00 0.000000e+00
1.420000e+00 0.000000e+00 0.000000e+00
1.430000e+00 0.000000e+00 0.000000e+00
1.440000e+00 0.000000e+00 0.000000e+00
1.450000e+00 0.000000e+00 0.000000e+00
1.460000e+00 0.000000e+00 0.000000e+00
1.470000e+00 0.000000e+00 0.000000e+00
1.480000e+00 0.000000e+00 0.000000e+00
1.490000e+00 0.000000e+00 0.000000e+00
1.500000e+00 0.000000e+00 0.000000e+00
1.510000e+00 0.000000e+00 0.000000e+00
1.520000e+00 0.000000e+00 0.000000e+00
1.530000e+00 0.000000e+00 0.000000e+00
1.540000e+00 0.000000e+00 0.000000e+00
1.550000e+00 0.000000e+00 0.000000e+00
1.560000e+00 0.000000e+00 0.000000e+00
1.570000e+00 0.000000e+00 0.000000e+00
1.580000e+00 0.000000e+00 0.000000e+00
1.590000e+00 0.000000e+00 0.000000e+00
1.600000e+00 0.000000e+00 0.000000e+00
1.610000e+00 0.000000e+00 0.000000e+00
1.620000e+00 0.000000e+00 0.000000e+00
1.630000e+00 0.000000e+00 0.000000e+00
1.640000e+00 0.000000e+00 0.000000e+00
1.650000e+00 0.000000e+00 0.000000e+00
1.660000e+00 0.000000e+00 0.000000e+00
1.670000e+00 0.000000e+00 0.000000e+00
1.680000e+00 0.000000e+00 0.000000e+00
1.690000e+00 0.000000e+00 0.000000e+00
1.700000e+00 0.000000e+00 0.000000e+00
1.710000e+00 0.000000e+00 0.000000e+00
1.720000e+00 0.000000e+00 0.000000e+00
1.730000e+00 0.000000e+00 0.000000e+00
1.740000e+00 0.000000e+00 0.000000e+00
1.750000e+00 0.000000e+00 0.000000e+00
1.760000e+00 0.000000e+00 0.000000e+00
1.770000e+00 0.000000e+00 0.000000e+00
1.780000e+00 0.000000e+00 0.000000e+00
1.790000e+00 0.000000e+00 0.000000e+00
1.800000e+00 0.000000e+00 0.000000e+00
1.810000e+00 0.000000e+00 0.000000e+00
1.820000e+00 0.000000e+00 0.000000e+00
1.830000e+00 0.000000e+00 0.000000e+00
1.840000e+00 0.000000e+00 0.000000e+00
1.850000e+00 0.000000e+00 0.000000e+00
1.860000e+00 0.000000e+00 0.000000e+00
1.870000e+00 0.000000e+00 0.000000e+00
1.880000e+00 0.000000e+00 0.000000e+00
1.890000e+00 0.000000e+00 0.000000e+00
1.900000e+00 0.000000e+00 0.000000e+00
1.910000e+00 0.000000e+00 0.000000e+00
1.920000e+00 0.000000e+00 0.000000e+00
1.930000e+00 0.000000e+00 0.000000e+00
1.940000e+00 0.000000e+00 0.000000e+00
1.950000e+00 0.000000e+00 0.000000e+00
1.960000e+00 0.000000e+00 0.000000e+00
1.970000e+00 0.000000e+00 0.000000e+00
1.980000e+00 0.000000e+00 0.000000e+00
1.990000e+00 0.000000e+00 0.000000e+00
2.000000e+00 0.000000e+00 0.000000e+00
2.010000e+00 0.000000e+00 0.000000e+00
2.020000e+00 0.000000e+00 0.000000e+00
2.030000e+00 0.000000e+00 0.000000e+00
2.040000e+00 0.000000e+00 0.000000e+00
2.050000e+00 0.000000e+00 0.000000e+00
2.060000e+00 0.000000e+00 0.000000e+00
2.070000e+00 0.000000e+00 0.000000e+00
2.080000e+00 0.000000e+00 0.000000e+00
2.090000e+00 0.000000e+00 0.000000e+00
2.100000e+00 0.000000e+00 0.000000e+00
2.110000e+00 0.000000e+00 0.000000e+00
2.120000e+00 0.000000e+00 0.000000e+00
2.130000e+00 0.000000e+00 0.000000e+00
2.140000e+00 0.000000e+00 0.000000e+00
2.150000e+00 0.000000e+00 0.000000e+00
2.160000e+00 0.000000e+00 0.000000e+00
2.170000e+00 0.000000e+00 0.000000e+00
2.180000e+00 0.000000e+00 0.000000e+00
2.190000e+00 0.000000e+00 0.000000e+00
2.200000e+00 0.000000e+00 0.000000e+00
2.210000e+00 0.000000e+00 0.000000e+00
2.220000e+00 0.000000e+00 0.000000e+00
2.230000e+00 0.000000e+00 0.000000e+00
2.240000e+00 0.000000e+00 0.000000e+00
2.250000e+00 0.000000e+00 0.000000e+00
2.260000e+00 0.000000e+00 0.000000e+00
2.270000e+00 0.000000e+00 0.000000e+00
2.280000e+00 0.000000e+00 0.000000e+00
2.290000e+00 0.000000e+00 0.000000e+00
2.300000e+00 0.000000e+00 0.000000e+00
2.310000e+00 0.000000e+00 0.000000e+00
2.320000e+00 0.000000e+00 0.000000e+00
2.330000e+00 0.000000e+00 0.000000e+00
2.340000e+00 0.000000e+00 0.000000e+00
2.350000e+00 0.000000e+00 0.000000e+00
2.360000e+00 0.000000e+00 0.000000e+00
2.370000e+00 0.000000e+00 0.000000e+00
2.380000e+00 0.000000e+00 0.000000e+00
2.390000e+00 0.000000e+00 0.000000e+00
2.400000e+00 0.000000e+00 0.000000e+00
2.410000e+00 0.000000e+00 0.000000e+00
2.420000e+00 0.000000e+00 0.000000e+00
2.430000e+00 0.000000e+00 0.000000e+00
2.440000e+00 0.000000e+00 0.000000e+00
2.450000e+00 0.000000e+00 0.000000e+00
2.460000e+00 0.000000e+00 0.000000e+00
2.470000e+00 0.000000e+00 0.000000e+00
2.480000e+00 0.000000e+00 0.000000e+00
2.490000e+00 0.000000e+00 0.000000e+00
2.500000e+00 0.000000e+00 0.000000e+00
2.510000e+00 0.000000e+00 0.000000e+00
2.520000e+00 0.000000e+00 0.000000e+00
2.530000e+00 0.000000e+00 0.000000e+00
[...]
POINT_DATA 501
SCALARS vm float 1
LOOKUP_TABLE default
-6.864952e+00
-6.864692e+00
-6.864175e+00
-6.863405e+00
-6.862395e+00
-6.861131e+00
-6.859686e+00
-6.858063e+00
-6.856266e+00
-6.854299e+00
-6.852176e+00
-6.849900e+00
-6.847479e+00
-6.844921e+00
-6.842229e+00
-6.839409e+00
-6.836471e+00
-6.833414e+00
-6.830246e+00
-6.826975e+00
-6.823599e+00
-6.820127e+00
-6.816565e+00
-6.812912e+00
-6.809174e+00
-6.805359e+00
-6.801465e+00
-6.797496e+00
-6.793461e+00
-6.789357e+00
-6.785188e+00
-6.780961e+00
-6.776674e+00
-6.772334e+00
-6.767939e+00
-6.763493e+00
-6.759004e+00
-6.754464e+00
-6.749881e+00
-6.745261e+00
-6.740598e+00
-6.735897e+00
-6.731163e+00
-6.726392e+00
-6.721593e+00
-6.716759e+00
-6.711896e+00
-6.707009e+00
-6.702092e+00
-6.697149e+00
-6.692186e+00
-6.687198e+00
-6.682190e+00
-6.677160e+00
-6.672110e+00
-6.667046e+00
-6.661960e+00
-6.656858e+00
-6.651743e+00
-6.646611e+00
-6.641465e+00
-6.636309e+00
-6.631137e+00
-6.625957e+00
-6.620762e+00
-6.615557e+00
-6.610345e+00
-6.605121e+00
-6.599888e+00
-6.594650e+00
-6.589401e+00
-6.584147e+00
-6.578885e+00
-6.573615e+00
-6.568344e+00
-6.563063e+00
-6.557776e+00
-6.552489e+00
-6.547194e+00
-6.541895e+00
-6.536594e+00
-6.531286e+00
-6.525980e+00
-6.520667e+00
-6.515350e+00
-6.510034e+00
-6.504713e+00
-6.499390e+00
-6.494068e+00
-6.488741e+00
-6.483415e+00
-6.478086e+00
-6.472754e+00
-6.467425e+00
-6.462092e+00
-6.456757e+00
-6.451426e+00
-6.446090e+00
-6.440757e+00
-6.435421e+00
-6.430084e+00
-6.424752e+00
-6.419415e+00
-6.414077e+00
-6.408744e+00
-6.403408e+00
-6.398072e+00
-6.392739e+00
-6.387403e+00
-6.382071e+00
-6.376737e+00
-6.371402e+00
-6.366072e+00
-6.360739e+00
-6.355407e+00
-6.350078e+00
-6.344746e+00
-6.339420e+00
-6.334090e+00
-6.328761e+00
-6.323437e+00
-6.318110e+00
-6.312783e+00
-6.307461e+00
-6.302136e+00
-6.296815e+00
-6.291493e+00
-6.286170e+00
-6.280854e+00
-6.275533e+00
-6.270213e+00
-6.264899e+00
-6.259581e+00
-6.254265e+00
-6.248953e+00
-6.243638e+00
-6.238328e+00
-6.233015e+00
-6.227703e+00
-6.222396e+00
-6.217086e+00
-6.211776e+00
-6.206471e+00
-6.201164e+00
-6.195860e+00
-6.190555e+00
-6.185250e+00
-6.179950e+00
-6.174646e+00
-6.169344e+00
-6.164046e+00
-6.158745e+00
-6.153447e+00
-6.148149e+00
-6.142850e+00
-6.137557e+00
-6.132260e+00
-6.126963e+00
-6.121671e+00
-6.116376e+00
-6.111082e+00
-6.105792e+00
-6.100499e+00
-6.095210e+00
-6.089919e+00
-6.084627e+00
-6.079341e+00
-6.074052e+00
-6.068762e+00
-6.063477e+00
-6.058189e+00
-6.052905e+00
-6.047619e+00
-6.042331e+00
-6.037050e+00
-6.031764e+00
-6.026479e+00
-6.021198e+00
-6.015914e+00
-6.010633e+00
-6.005351e+00
-6.000067e+00
-5.994789e+00
-5.989507e+00
-5.984224e+00
-5.978947e+00
-5.973666e+00
-5.968386e+00
-5.963109e+00
-5.957828e+00
-5.952552e+00
-5.947273e+00
-5.941993e+00
-5.936719e+00
-5.931440e+00
-5.926162e+00
-5.920887e+00
-5.915609e+00
-5.910334e+00
-5.905058e+00
-5.899779e+00
-5.894507e+00
-5.889230e+00
-5.883952e+00
-5.878679e+00
-5.873403e+00
-5.868129e+00
-5.862854e+00
-5.857577e+00
-5.852305e+00
-5.847029e+00
-5.841752e+00
-5.836481e+00
-5.831205e+00
-5.825930e+00
-5.820657e+00
-5.815381e+00
-5.810109e+00
-5.804834e+00
-5.799558e+00
-5.794287e+00
-5.789011e+00
-5.783736e+00
-5.778464e+00
-5.773188e+00
-5.767915e+00
-5.762641e+00
-5.757364e+00
-5.752093e+00
-5.746817e+00
-5.741541e+00
-5.736269e+00
-5.730993e+00
-5.725719e+00
-5.720445e+00
-5.715168e+00
-5.709896e+00
-5.704621e+00
-5.699343e+00
-5.694071e+00
-5.688795e+00
-5.683518e+00
-5.678245e+00
-5.672968e+00
-5.667695e+00
-5.662418e+00
-5.657140e+00
-5.651867e+00
-5.646590e+00
-5.641313e+00
-5.636039e+00
-5.630761e+00
-5.625486e+00
-5.620209e+00
-5.614930e+00
-5.609656e+00
-5.604378e+00
-5.599099e+00
-5.593824e+00
-5.588545e+00
-5.583268e+00
-5.577992e+00
-5.572712e+00
-5.567436e+00
-5.562157e+00
-5.556877e+00
-5.551602e+00
-5.546322e+00
-5.541042e+00
-5.535766e+00
-5.530485e+00
-5.525209e+00
-5.519929e+00
-5.514647e+00
-5.509371e+00
-5.504091e+00
-5.498810e+00
-5.493533e+00
-5.488251e+00
-5.482973e+00
-5.477694e+00
-5.472411e+00
-5.467134e+00
-5.461853e+00
-5.456571e+00
-5.451294e+00
-5.446012e+00
-5.440732e+00
-5.435453e+00
-5.430171e+00
-5.424893e+00
-5.419613e+00
-5.414330e+00
-5.409053e+00
-5.403771e+00
-5.398490e+00
-5.393212e+00
-5.387930e+00
-5.382653e+00
-5.377373e+00
-5.372091e+00
-5.366814e+00
-5.361533e+00
-5.356253e+00
-5.350976e+00
-5.345695e+00
-5.340418e+00
-5.335140e+00
-5.329859e+00
-5.324583e+00
-5.319305e+00
-5.314025e+00
-5.308751e+00
-5.303472e+00
-5.298196e+00
-5.292921e+00
-5.287643e+00
-5.282371e+00
-5.277095e+00
-5.271818e+00
-5.266547e+00
-5.261273e+00
-5.255999e+00
-5.250729e+00
-5.245455e+00
-5.240187e+00
-5.234916e+00
-5.229644e+00
-5.224378e+00
-5.219109e+00
-5.213840e+00
-5.208577e+00
-5.203309e+00
-5.198047e+00
-5.192783e+00
-5.187518e+00
-5.182260e+00
-5.176999e+00
-5.171738e+00
-5.166482e+00
-5.161224e+00
-5.155969e+00
-5.150717e+00
-5.145462e+00
-5.140214e+00
-5.134964e+00
-5.129714e+00
-5.124470e+00
-5.119225e+00
-5.113981e+00
-5.108743e+00
-5.103502e+00
-5.098268e+00
-5.093033e+00
-5.087798e+00
-5.082570e+00
-5.077341e+00
-5.072114e+00
-5.066894e+00
-5.061672e+00
-5.056456e+00
-5.051241e+00
-5.046026e+00
-5.040820e+00
-5.035613e+00
-5.030408e+00
-5.025212e+00
-5.020014e+00
-5.014821e+00
-5.009634e+00
-5.004446e+00
-4.999268e+00
-4.994090e+00
-4.988914e+00
-4.983748e+00
-4.978582e+00
-4.973421e+00
-4.968268e+00
-4.963116e+00
-4.957972e+00
-4.952832e+00
-4.947694e+00
-4.942568e+00
-4.937443e+00
-4.932323e+00
-4.927213e+00
-4.922105e+00
-4.917008e+00
-4.911915e+00
-4.906826e+00
-4.901750e+00
-4.896677e+00
-4.891610e+00
-4.886556e+00
-4.881506e+00
-4.876464e+00
-4.871434e+00
-4.866408e+00
-4.861395e+00
-4.856389e+00
-4.851390e+00
-4.846406e+00
-4.841428e+00
-4.836460e+00
-4.831507e+00
-4.826560e+00
-4.821628e+00
-4.816705e+00
-4.811792e+00
-4.806897e+00
-4.802010e+00
-4.797135e+00
-4.792278e+00
-4.787430e+00
-4.782600e+00
-4.777783e+00
-4.772977e+00
-4.768193e+00
-4.763421e+00
-4.758663e+00
-4.753927e+00
-4.749203e+00
-4.744498e+00
-4.739814e+00
-4.735144e+00
-4.730498e+00
-4.725869e+00
-4.721257e+00
-4.716672e+00
-4.712104e+00
-4.707557e+00
-4.703037e+00
-4.698535e+00
-4.694061e+00
-4.689609e+00
-4.685179e+00
-4.680780e+00
-4.676405e+00
-4.672055e+00
-4.667737e+00
-4.663443e+00
-4.659182e+00
-4.654950e+00
-4.650745e+00
-4.646578e+00
-4.642439e+00
-4.638332e+00
-4.634264e+00
-4.630227e+00
-4.626226e+00
-4.622266e+00
-4.618338e+00
-4.614454e+00
-4.610607e+00
-4.606798e+00
-4.603037e+00
-4.599314e+00
-4.595635e+00
-4.592005e+00
-4.588416e+00
-4.584879e+00
-4.581388e+00
-4.577944e+00
-4.574556e+00
-4.571217e+00
-4.567930e+00
-4.564702e+00
-4.561526e+00
-4.558410e+00
-4.555353e+00
-4.552352e+00
-4.549419e+00
-4.546545e+00
-4.543734e+00
-4.540995e+00
-4.538320e+00
-4.535715e+00
-4.533184e+00
-4.530722e+00
-4.528341e+00
-4.526033e+00
-4.523803e+00
-4.521659e+00
-4.519595e+00
-4.517616e+00
-4.515730e+00
-4.513930e+00
-4.512226e+00
-4.510620e+00
-4.509111e+00
-4.507708e+00
-4.506412e+00
-4.505224e+00
-4.504150e+00
-4.503200e+00
-4.502379e+00
-4.501684e+00
-4.501114e+00
-4.500682e+00
-4.500391e+00
-4.500244e+00
