# vtk DataFile Version 3.0
Monodomain MVF
ASCII
DATASET POLYDATA
POINTS 501 float
0.000000e+00 0.000000e+00 0.000000e+00
1.000000e-02 0.000000e+00 0.000000e+00
2.000000e-02 0.000000e+00 0.000000e+00
3.000000e-02 0.000000e+00 0.000000e+00
4.000000e-02 0.000000e+00 0.000000e+00
5.000000e-02 0.000000e+00 0.000000e+00
6.000000e-02 0.000000e+00 0.000000e+00
7.000000e-02 0.000000e+00 0.000000e+00
8.000000e-02 0.000000e+00 0.000000e+00
9.000000e-02 0.000000e+00 0.000000e+00
1.000000e-01 0.000000e+00 0.000000e+00
1.100000e-01 0.000000e+00 0.000000e+00
1.200000e-01 0.000000e+00 0.000000e+00
1.300000e-01 0.000000e+00 0.000000e+00
1.400000e-01 0.000000e+00 0.000000e+00
1.500000e-01 0.000000e+00 0.000000e+00
1.600000e-01 0.000000e+00 0.000000e+00
1.700000e-01 0.000000e+00 0.000000e+00
1.800000e-01 0.000000e+00 0.000000e+00
1.900000e-01 0.000000e+00 0.000000e+00
2.000000e-01 0.000000e+00 0.000000e+00
2.100000e-01 0.000000e+00 0.000000e+00
2.200000e-01 0.000000e+00 0.000000e+00
2.300000e-01 0.000000e+00 0.000000e+00
2.400000e-01 0.000000e+00 0.000000e+00
2.500000e-01 0.000000e+00 0.000000e+00
2.600000e-01 0.000000e+00 0.000000e+00
2.700000e-01 0.000000e+00 0.000000e+00
2.800000e-01 0.000000e+00 0.000000e+00
2.900000e-01 0.000000e+00 0.000000e+00
3.000000e-01 0.000000e+00 0.000000e+00
3.100000e-01 0.000000e+00 0.000000e+00
3.200000e-01 0.000000e+00 0.000000e+00
3.300000e-01 0.000000e+00 0.000000e+00
3.400000e-01 0.000000e+00 0.000000e+00
3.500000e-01 0.000000e+00 0.000000e+00
3.600000e-01 0.000000e+00 0.000000e+00
3.700000e-01 0.000000e+00 0.000000e+00
3.800000e-01 0.000000e+00 0.000000e+00
3.900000e-01 0.000000e+00 0.000000e+00
4.000000e-01 0.000000e+00 0.000000e+00
4.100000e-01 0.000000e+00 0.000000e+00
4.200000e-01 0.000000e+00 0.000000e+00
4.300000e-01 0.000000e+00 0.000000e+00
4.400000e-01 0.000000e+00 0.000000e+00
4.500000e-01 0.000000e+00 0.000000e+00
4.600000e-01 0.000000e+00 0.000000e+00
4.700000e-01 0.000000e+00 0.000000e+00
4.800000e-01 0.000000e+00 0.000000e+00
4.900000e-01 0.000000e+00 0.000000e+00
5.000000e-01 0.000000e+00 0.000000e+00
5.100000e-01 0.000000e+00 0.000000e+00
5.200000e-01 0.000000e+00 0.000000e+00
5.300000e-01 0.000000e+00 0.000000e+00
5.400000e-01 0.000000e+00 0.000000e+00
5.500000e-01 0.000000e+00 0.000000e+00
5.600000e-01 0.000000e+00 0.000000e+00
5.700000e-01 0.000000e+00 0.000000e+00
5.800000e-01 0.000000e+00 0.000000e+00
5.900000e-01 0.000000e+00 0.000000e+00
6.000000e-01 0.000000e+00 0.000000e+00
6.100000e-01 0.000000e+00 0.000000e+00
6.200000e-01 0.000000e+00 0.000000e+00
6.300000e-01 0.000000e+00 0.000000e+00
6.400000e-01 0.000000e+00 0.000000e+00
6.500000e-01 0.000000e+00 0.000000e+00
6.600000e-01 0.000000e+00 0.000000e+00
6.700000e-01 0.000000e+00 0.000000e+00
6.800000e-01 0.000000e+00 0.000000e+00
6.900000e-01 0.000000e+00 0.000000e+00
7.000000e-01 0.000000e+00 0.000000e+00
7.100000e-01 0.000000e+00 0.000000e+00
7.200000e-01 0.000000e+00 0.000000e+00
7.300000e-01 0.000000e+00 0.000000e+00
7.400000e-01 0.000000e+00 0.000000e+00
7.500000e-01 0.000000e+00 0.000000e+00
7.600000e-01 0.000000e+00 0.000000e+00
7.700000e-01 0.000000e+00 0.000000e+00
7.800000e-01 0.000000e+00 0.000000e+00
7.900000e-01 0.000000e+00 0.000000e+00
8.000000e-01 0.000000e+00 0.000000e+00
8.100000e-01 0.000000e+00 0.000000e+00
8.200000e-01 0.000000e+00 0.000000e+00
8.300000e-01 0.000000e+00 0.000000e+00
8.400000e-01 0.000000e+00 0.000000e+00
8.500000e-01 0.000000e+00 0.000000e+00
8.600000e-01 0.000000e+00 0.000000e+00
8.700000e-01 0.000000e+00 0.000000e+00
8.800000e-01 0.000000e+00 0.000000e+00
8.900000e-01 0.000000e+00 0.000000e+00
9.000000e-01 0.000000e+00 0.000000e+00
9.100000e-01 0.000000e+00 0.000000e+00
9.200000e-01 0.000000e+00 0.000000e+00
9.300000e-01 0.000000e+00 0.000000e+00
9.400000e-01 0.000000e+00 0.000000e+00
9.500000e-01 0.000000e+00 0.000000e+00
9.600000e-01 0.000000e+00 0.000000e+00
9.700000e-01 0.000000e+00 0.000000e+00
9.800000e-01 0.000000e+00 0.000000e+00
9.900000e-01 0.000000e+00 0.000000e+00
1.000000e+00 0.000000e+00 0.000000e+00
1.010000e+00 0.000000e+00 0.000000e+00
1.020000e+00 0.000000e+00 0.000000e+00
1.030000e+00 0.000000e+00 0.000000e+00
1.040000e+00 0.000000e+00 0.000000e+00
1.050000e+00 0.000000e+00 0.000000e+00
1.060000e+00 0.000000e+00 0.000000e+00
1.070000e+00 0.000000e+00 0.000000e+00
1.080000e+00 0.000000e+00 0.000000e+00
1.090000e+00 0.000000e+00 0.000000e+00
1.100000e+00 0.000000e+00 0.000000e+00
1.110000e+00 0.000000e+00 0.000000e+00
1.120000e+00 0.000000e+00 0.000000e+00
1.130000e+00 0.000000e+00 0.000000e+00
1.140000e+00 0.000000e+00 0.000000e+00
1.150000e+00 0.000000e+00 0.000000e+00
1.160000e+00 0.000000e+00 0.000000e+00
1.170000e+00 0.000000e+00 0.000000e+00
1.180000e+00 0.000000e+00 0.000000e+00
1.190000e+00 0.000000e+00 0.000000e+00
1.200000e+00 0.000000e+00 0.000000e+00
1.210000e+00 0.000000e+00 0.000000e+00
1.220000e+00 0.000000e+00 0.000000e+00
1.230000e+00 0.000000e+00 0.000000e+00
1.240000e+00 0.000000e+00 0.000000e+00
1.250000e+00 0.000000e+00 0.000000e+00
1.260000e+00 0.000000e+00 0.000000e+00
1.270000e+00 0.000000e+00 0.000000e+00
1.280000e+00 0.000000e+00 0.000000e+00
1.290000e+00 0.000000e+00 0.000000e+00
1.300000e+00 0.000000e+00 0.000000e+00
1.310000e+00 0.000000e+00 0.000000e+00
1.320000e+00 0.000000e+00 0.000000e+00
1.330000e+00 0.000000e+00 0.000000e+00
1.340000e+00 0.000000e+00 0.000000e+00
1.350000e+00 0.000000e+00 0.000000e+00
1.360000e+00 0.000000e+00 0.000000e+00
1.370000e+00 0.000000e+00 0.000000e+00
1.380000e+00 0.000000e+00 0.000000e+00
1.390000e+00 0.000000e+00 0.000000e+00
1.400000e+00 0.000000e+00 0.000000e+00
1.410000e+00 0.000000e+00 0.000000e+00
1.420000e+00 0.000000e+00 0.000000e+00
1.430000e+00 0.000000e+00 0.000000e+00
1.440000e+00 0.000000e+00 0.000000e+00
1.450000e+00 0.000000e+00 0.000000e+00
1.460000e+00 0.000000e+00 0.000000e+00
1.470000e+00 0.000000e+00 0.000000e+00
1.480000e+00 0.000000e+00 0.000000e+00
1.490000e+00 0.000000e+00 0.000000e+00
1.500000e+00 0.000000e+00 0.000000e+00
1.510000e+00 0.000000e+00 0.000000e+00
1.520000e+00 0.000000e+00 0.000000e+00
1.530000e+00 0.000000e+00 0.000000e+00
1.540000e+00 0.000000e+00 0.000000e+00
1.550000e+00 0.000000e+00 0.000000e+00
1.560000e+00 0.000000e+00 0.000000e+00
1.570000e+00 0.000000e+00 0.000000e+00
1.580000e+00 0.000000e+00 0.000000e+00
1.590000e+00 0.000000e+00 0.000000e+00
1.600000e+00 0.000000e+00 0.000000e+00
1.610000e+00 0.000000e+00 0.000000e+00
1.620000e+00 0.000000e+00 0.000000e+00
1.630000e+00 0.000000e+00 0.000000e+00
1.640000e+00 0.000000e+00 0.000000e+00
1.650000e+00 0.000000e+00 0.000000e+00
1.660000e+00 0.000000e+00 0.000000e+00
1.670000e+00 0.000000e+00 0.000000e+00
1.680000e+00 0.000000e+00 0.000000e+00
1.690000e+00 0.000000e+00 0.000000e+00
1.700000e+00 0.000000e+00 0.000000e+00
1.710000e+00 0.000000e+00 0.000000e+00
1.720000e+00 0.000000e+00 0.000000e+00
1.730000e+00 0.000000e+00 0.000000e+00
1.740000e+00 0.000000e+00 0.000000e+00
1.750000e+00 0.000000e+00 0.000000e+00
1.760000e+00 0.000000e+00 0.000000e+00
1.770000e+00 0.000000e+00 0.000000e+00
1.780000e+00 0.000000e+00 0.000000e+00
1.790000e+00 0.000000e+00 0.000000e+00
1.800000e+00 0.000000e+00 0.000000e+00
1.810000e+00 0.000000e+00 0.000000e+00
1.820000e+00 0.000000e+00 0.000000e+00
1.830000e+00 0.000000e+00 0.000000e+00
1.840000e+00 0.000000e+00 0.000000e+00
1.850000e+00 0.000000e+00 0.000000e+00
1.860000e+00 0.000000e+00 0.000000e+00
1.870000e+00 0.000000e+00 0.000000e+00
1.880000e+00 0.000000e+00 0.000000e+00
1.890000e+00 0.000000e+00 0.000000e+00
1.900000e+00 0.000000e+00 0.000000e+00
1.910000e+00 0.000000e+00 0.000000e+00
1.920000e+00 0.000000e+00 0.000000e+00
1.930000e+00 0.000000e+00 0.000000e+00
1.940000e+00 0.000000e+00 0.000000e+00
1.950000e+00 0.000000e+00 0.000000e+00
1.960000e+00 0.000000e+00 0.000000e+00
1.970000e+00 0.000000e+00 0.000000e+00
1.980000e+00 0.000000e+00 0.000000e+00
1.990000e+00 0.000000e+00 0.000000e+00
2.000000e+00 0.000000e+00 0.000000e+00
2.010000e+00 0.000000e+00 0.000000e+00
2.020000e+00 0.000000e+00 0.000000e+00
2.030000e+00 0.000000e+00 0.000000e+00
2.040000e+00 0.000000e+00 0.000000e+00
2.050000e+00 0.000000e+00 0.000000e+00
2.060000e+00 0.000000e+00 0.000000e+00
2.070000e+00 0.000000e+00 0.000000e+00
2.080000e+00 0.000000e+00 0.000000e+00
2.090000e+00 0.000000e+00 0.000000e+00
2.100000e+00 0.000000e+00 0.000000e+00
2.110000e+00 0.000000e+00 0.000000e+00
2.120000e+00 0.000000e+00 0.000000e+00
2.130000e+00 0.000000e+00 0.000000e+00
2.140000e+00 0.000000e+00 0.000000e+00
2.150000e+00 0.000000e+00 0.000000e+00
2.160000e+00 0.000000e+00 0.000000e+00
2.170000e+00 0.000000e+00 0.000000e+00
2.180000e+00 0.000000e+00 0.000000e+00
2.190000e+00 0.000000e+00 0.000000e+00
2.200000e+00 0.000000e+00 0.000000e+00
2.210000e+00 0.000000e+00 0.000000e+00
2.220000e+00 0.000000e+00 0.000000e+00
2.230000e+00 0.000000e+00 0.000000e+00
2.240000e+00 0.000000e+00 0.000000e+00
2.250000e+00 0.000000e+00 0.000000e+00
2.260000e+00 0.000000e+00 0.000000e+00
2.270000e+00 0.000000e+00 0.000000e+00
2.280000e+00 0.000000e+00 0.000000e+00
2.290000e+00 0.000000e+00 0.000000e+00
2.300000e+00 0.000000e+00 0.000000e+00
2.310000e+00 0.000000e+00 0.000000e+00
2.320000e+00 0.000000e+00 0.000000e+00
2.330000e+00 0.000000e+00 0.000000e+00
2.340000e+00 0.000000e+00 0.000000e+00
2.350000e+00 0.000000e+00 0.000000e+00
2.360000e+00 0.000000e+00 0.000000e+00
2.370000e+00 0.000000e+00 0.000000e+00
2.380000e+00 0.000000e+00 0.000000e+00
2.390000e+00 0.000000e+00 0.000000e+00
2.400000e+00 0.000000e+00 0.000000e+00
2.410000e+00 0.000000e+00 0.000000e+00
2.420000e+00 0.000000e+00 0.000000e+00
2.430000e+00 0.000000e+00 0.000000e+00
2.440000e+00 0.000000e+00 0.000000e+00
2.450000e+00 0.000000e+00 0.000000e+00
2.460000e+00 0.000000e+00 0.000000e+00
2.470000e+00 0.000000e+00 0.000000e+00
2.480000e+00 0.000000e+00 0.000000e+00
2.490000e+00 0.000000e+00 0.000000e+00
2.500000e+00 0.000000e+00 0.000000e+00
2.510000e+00 0.000000e+00 0.000000e+00
2.520000e+00 0.000000e+00 0.000000e+00
2.530000e+00 0.000000e+00 0.000000e+00
[...]
POINT_DATA 501
SCALARS vm float 1
LOOKUP_TABLE default
-5.512968e+01
-5.512952e+01
-5.512919e+01
-5.512871e+01
-5.512808e+01
-5.512727e+01
-5.512632e+01
-5.512523e+01
-5.512400e+01
-5.512262e+01
-5.512110e+01
-5.511944e+01
-5.511764e+01
-5.511570e+01
-5.511363e+01
-5.511142e+01
-5.510908e+01
-5.510661e+01
-5.510401e+01
-5.510128e+01
-5.509843e+01
-5.509545e+01
-5.509234e+01
-5.508911e+01
-5.508576e+01
-5.508230e+01
-5.507871e+01
-5.507500e+01
-5.507118e+01
-5.506724e+01
-5.506318e+01
-5.505902e+01
-5.505474e+01
-5.505035e+01
-5.504585e+01
-5.504123e+01
-5.503651e+01
-5.503169e+01
-5.502675e+01
-5.502171e+01
-5.501657e+01
-5.501131e+01
-5.500596e+01
-5.500051e+01
-5.499495e+01
-5.498929e+01
-5.498353e+01
-5.497767e+01
-5.497172e+01
-5.496566e+01
-5.495951e+01
-5.495326e+01
-5.494691e+01
-5.494047e+01
-5.493394e+01
-5.492731e+01
-5.492059e+01
-5.491378e+01
-5.490687e+01
-5.489988e+01
-5.489279e+01
-5.488561e+01
-5.487834e+01
-5.487099e+01
-5.486355e+01
-5.485602e+01
-5.484840e+01
-5.484070e+01
-5.483291e+01
-5.482503e+01
-5.481707e+01
-5.480903e+01
-5.480091e+01
-5.479270e+01
-5.478441e+01
-5.477603e+01
-5.476758e+01
-5.475905e+01
-5.475043e+01
-5.474174e+01
-5.473297e+01
-5.472411e+01
-5.471519e+01
-5.470618e+01
-5.469710e+01
-5.468794e+01
-5.467870e+01
-5.466939e+01
-5.466001e+01
-5.465055e+01
-5.464102e+01
-5.463141e+01
-5.462173e+01
-5.461198e+01
-5.460216e+01
-5.459226e+01
-5.458230e+01
-5.457227e+01
-5.456216e+01
-5.455199e+01
-5.454175e+01
-5.453144e+01
-5.452107e+01
-5.451062e+01
-5.450011e+01
-5.448954e+01
-5.447889e+01
-5.446819e+01
-5.445742e+01
-5.444658e+01
-5.443568e+01
-5.442472e+01
-5.441370e+01
-5.440261e+01
-5.439146e+01
-5.438025e+01
-5.436898e+01
-5.435765e+01
-5.434626e+01
-5.433481e+01
-5.432331e+01
-5.431174e+01
-5.430012e+01
-5.428844e+01
-5.427670e+01
-5.426490e+01
-5.425306e+01
-5.424115e+01
-5.422919e+01
-5.421718e+01
-5.420511e+01
-5.419299e+01
-5.418082e+01
-5.416859e+01
-5.415631e+01
-5.414398e+01
-5.413160e+01
-5.411917e+01
-5.410669e+01
-5.409416e+01
-5.408158e+01
-5.406895e+01
-5.405628e+01
-5.404355e+01
-5.403078e+01
-5.401796e+01
-5.400510e+01
-5.399219e+01
-5.397923e+01
-5.396623e+01
-5.395319e+01
-5.394010e+01
-5.392697e+01
-5.391380e+01
-5.390058e+01
-5.388732e+01
-5.387402e+01
-5.386068e+01
-5.384730e+01
-5.383388e+01
-5.382042e+01
-5.380692e+01
-5.379338e+01
-5.377980e+01
-5.376619e+01
-5.375254e+01
-5.373885e+01
-5.372512e+01
-5.371136e+01
-5.369756e+01
-5.368373e+01
-5.366987e+01
-5.365597e+01
-5.364203e+01
-5.362807e+01
-5.361407e+01
-5.360004e+01
-5.358597e+01
-5.357188e+01
-5.355775e+01
-5.354360e+01
-5.352941e+01
-5.351520e+01
-5.350095e+01
-5.348668e+01
-5.347238e+01
-5.345805e+01
-5.344370e+01
-5.342932e+01
-5.341491e+01
-5.340048e+01
-5.338602e+01
-5.337153e+01
-5.335703e+01
-5.334249e+01
-5.332794e+01
-5.331336e+01
-5.329876e+01
-5.328414e+01
-5.326949e+01
-5.325482e+01
-5.324014e+01
-5.322543e+01
-5.321070e+01
-5.319596e+01
-5.318119e+01
-5.316641e+01
-5.315161e+01
-5.313679e+01
-5.312195e+01
-5.310710e+01
-5.309223e+01
-5.307734e+01
-5.306244e+01
-5.304752e+01
-5.303259e+01
-5.301765e+01
-5.300269e+01
-5.298772e+01
-5.297274e+01
-5.295774e+01
-5.294273e+01
-5.292771e+01
-5.291268e+01
-5.289764e+01
-5.288259e+01
-5.286753e+01
-5.285247e+01
-5.283739e+01
-5.282230e+01
-5.280721e+01
-5.279211e+01
-5.277700e+01
-5.276189e+01
-5.274677e+01
-5.273164e+01
-5.271651e+01
-5.270138e+01
-5.268624e+01
-5.267109e+01
-5.265595e+01
-5.264080e+01
-5.262565e+01
-5.261049e+01
-5.259534e+01
-5.258018e+01
-5.256503e+01
-5.254987e+01
-5.253471e+01
-5.251956e+01
-5.250440e+01
-5.248925e+01
-5.247410e+01
-5.245895e+01
-5.244381e+01
-5.242867e+01
-5.241353e+01
-5.239839e+01
-5.238327e+01
-5.236814e+01
-5.235303e+01
-5.233791e+01
-5.232281e+01
-5.230771e+01
-5.229262e+01
-5.227754e+01
-5.226247e+01
-5.224740e+01
-5.223234e+01
-5.221730e+01
-5.220226e+01
-5.218724e+01
-5.217222e+01
-5.215722e+01
-5.214223e+01
-5.212725e+01
-5.211229e+01
-5.209734e+01
-5.208240e+01
-5.206747e+01
-5.205257e+01
-5.203767e+01
-5.202280e+01
-5.200793e+01
-5.199309e+01
-5.197826e+01
-5.196345e+01
-5.194866e+01
-5.193388e+01
-5.191913e+01
-5.190439e+01
-5.188968e+01
-5.187498e+01
-5.186031e+01
-5.184566e+01
-5.183102e+01
-5.181642e+01
-5.180183e+01
-5.178727e+01
-5.177273e+01
-5.175821e+01
-5.174372e+01
-5.172925e+01
-5.171481e+01
-5.170040e+01
-5.168601e+01
-5.167165e+01
-5.165731e+01
-5.164300e+01
-5.162873e+01
-5.161448e+01
-5.160026e+01
-5.158607e+01
-5.157191e+01
-5.155778e+01
-5.154368e+01
-5.152961e+01
-5.151558e+01
-5.150158e+01
-5.148761e+01
-5.147367e+01
-5.145977e+01
-5.144590e+01
-5.143207e+01
-5.141828e+01
-5.140452e+01
-5.139079e+01
-5.137711e+01
-5.136346e+01
-5.134985e+01
-5.133627e+01
-5.132274e+01
-5.130924e+01
-5.129579e+01
-5.128238e+01
-5.126900e+01
-5.125567e+01
-5.124238e+01
-5.122913e+01
-5.121593e+01
-5.120277e+01
-5.118965e+01
-5.117658e+01
-5.116355e+01
-5.115056e+01
-5.113763e+01
-5.112473e+01
-5.111189e+01
-5.109909e+01
-5.108634e+01
-5.107364e+01
-5.106099e+01
-5.104839e+01
-5.103584e+01
-5.102333e+01
-5.101088e+01
-5.099848e+01
-5.098613e+01
-5.097384e+01
-5.096159e+01
-5.094940e+01
-5.093727e+01
-5.092519e+01
-5.091316e+01
-5.090119e+01
-5.088927e+01
-5.087741e+01
-5.086561e+01
-5.085387e+01
-5.084218e+01
-5.083055e+01
-5.081898e+01
-5.080747e+01
-5.079602e+01
-5.078463e+01
-5.077330e+01
-5.076203e+01
-5.075083e+01
-5.073969e+01
-5.072861e+01
-5.071759e+01
-5.070664e+01
-5.069575e+01
-5.068492e+01
-5.067417e+01
-5.066348e+01
-5.065285e+01
-5.064229e+01
-5.063180e+01
-5.062138e+01
-5.061103e+01
-5.060074e+01
-5.059052e+01
-5.058038e+01
-5.057030e+01
-5.056030e+01
-5.055037e+01
-5.054051e+01
-5.053072e+01
-5.052101e+01
-5.051137e+01
-5.050180e+01
-5.049231e+01
-5.048289e+01
-5.047355e+01
-5.046428e+01
-5.045509e+01
-5.044598e+01
-5.043695e+01
-5.042799e+01
-5.041911e+01
-5.041031e+01
-5.040159e+01
-5.039295e+01
-5.038440e+01
-5.037592e+01
-5.036752e+01
-5.035921e+01
-5.035097e+01
-5.034282e+01
-5.033476e+01
-5.032678e+01
-5.031888e+01
-5.031106e+01
-5.030334e+01
-5.029569e+01
-5.028814e+01
-5.028067e+01
-5.027329e+01
-5.026599e+01
-5.025878e+01
-5.025166e+01
-5.024463e+01
-5.023769e+01
-5.023084e+01
-5.022408e+01
-5.021741e+01
-5.021083e+01
-5.020435e+01
-5.019795e+01
-5.019165e+01
-5.018544e+01
-5.017932e+01
-5.017330e+01
-5.016737e+01
-5.016154e+01
-5.015580e+01
-5.015015e+01
-5.014460e+01
-5.013915e+01
-5.013379e+01
-5.012853e+01
-5.012337e+01
-5.011831e+01
-5.011334e+01
-5.010847e+01
-5.010370e+01
-5.009903e+01
-5.009446e+01
-5.008999e+01
-5.008562e+01
-5.008135e+01
-5.007718e+01
-5.007311e+01
-5.006914e+01
-5.006528e+01
-5.006151e+01
-5.005785e+01
-5.005429e+01
-5.005084e+01
-5.004748e+01
-5.004423e+01
-5.004109e+01
-5.003805e+01
-5.003511e+01
-5.003227e+01
-5.002955e+01
-5.002692e+01
-5.002440e+01
-5.002199e+01
-5.001968e+01
-5.001748e+01
-5.001538e+01
-5.001339e+01
-5.001151e+01
-5.000974e+01
-5.000807e+01
-5.000651e+01
-5.000505e+01
-5.000371e+01
-5.000247e+01
-5.000134e+01
-5.000033e+01
-4.999942e+01
-4.999862e+01
-4.999794e+01
-4.999737e+01
-4.999691e+01
-4.999657e+01
-4.999633e+01
-4.999622e+01
