# vtk DataFile Version 3.0
Monodomain MVF
ASCII
DATASET POLYDATA
POINTS 501 float
0.000000e+00 0.000000e+00 0.000000e+00
1.000000e-02 0.000000e+00 0.000000e+00
2.000000e-02 0.000000e+00 0.000000e+00
3.000000e-02 0.000000e+00 0.000000e+00
4.000000e-02 0.000000e+00 0.000000e+00
5.000000e-02 0.000000e+00 0.000000e+00
6.000000e-02 0.000000e+00 0.000000e+00
7.000000e-02 0.000000e+00 0.000000e+00
8.000000e-02 0.000000e+00 0.000000e+00
9.000000e-02 0.000000e+00 0.000000e+00
1.000000e-01 0.000000e+00 0.000000e+00
1.100000e-01 0.000000e+00 0.000000e+00
1.200000e-01 0.000000e+00 0.000000e+00
1.300000e-01 0.000000e+00 0.000000e+00
1.400000e-01 0.000000e+00 0.000000e+00
1.500000e-01 0.000000e+00 0.000000e+00
1.600000e-01 0.000000e+00 0.000000e+00
1.700000e-01 0.000000e+00 0.000000e+00
1.800000e-01 0.000000e+00 0.000000e+00
1.900000e-01 0.000000e+00 0.000000e+00
2.000000e-01 0.000000e+00 0.000000e+00
2.100000e-01 0.000000e+00 0.000000e+00
2.200000e-01 0.000000e+00 0.000000e+00
2.300000e-01 0.000000e+00 0.000000e+00
2.400000e-01 0.000000e+00 0.000000e+00
2.500000e-01 0.000000e+00 0.000000e+00
2.600000e-01 0.000000e+00 0.000000e+00
2.700000e-01 0.000000e+00 0.000000e+00
2.800000e-01 0.000000e+00 0.000000e+00
2.900000e-01 0.000000e+00 0.000000e+00
3.000000e-01 0.000000e+00 0.000000e+00
3.100000e-01 0.000000e+00 0.000000e+00
3.200000e-01 0.000000e+00 0.000000e+00
3.300000e-01 0.000000e+00 0.000000e+00
3.400000e-01 0.000000e+00 0.000000e+00
3.500000e-01 0.000000e+00 0.000000e+00
3.600000e-01 0.000000e+00 0.000000e+00
3.700000e-01 0.000000e+00 0.000000e+00
3.800000e-01 0.000000e+00 0.000000e+00
3.900000e-01 0.000000e+00 0.000000e+00
4.000000e-01 0.000000e+00 0.000000e+00
4.100000e-01 0.000000e+00 0.000000e+00
4.200000e-01 0.000000e+00 0.000000e+00
4.300000e-01 0.000000e+00 0.000000e+00
4.400000e-01 0.000000e+00 0.000000e+00
4.500000e-01 0.000000e+00 0.000000e+00
4.600000e-01 0.000000e+00 0.000000e+00
4.700000e-01 0.000000e+00 0.000000e+00
4.800000e-01 0.000000e+00 0.000000e+00
4.900000e-01 0.000000e+00 0.000000e+00
5.000000e-01 0.000000e+00 0.000000e+00
5.100000e-01 0.000000e+00 0.000000e+00
5.200000e-01 0.000000e+00 0.000000e+00
5.300000e-01 0.000000e+00 0.000000e+00
5.400000e-01 0.000000e+00 0.000000e+00
5.500000e-01 0.000000e+00 0.000000e+00
5.600000e-01 0.000000e+00 0.000000e+00
5.700000e-01 0.000000e+00 0.000000e+00
5.800000e-01 0.000000e+00 0.000000e+00
5.900000e-01 0.000000e+00 0.000000e+00
6.000000e-01 0.000000e+00 0.000000e+00
6.100000e-01 0.000000e+00 0.000000e+00
6.200000e-01 0.000000e+00 0.000000e+00
6.300000e-01 0.000000e+00 0.000000e+00
6.400000e-01 0.000000e+00 0.000000e+00
6.500000e-01 0.000000e+00 0.000000e+00
6.600000e-01 0.000000e+00 0.000000e+00
6.700000e-01 0.000000e+00 0.000000e+00
6.800000e-01 0.000000e+00 0.000000e+00
6.900000e-01 0.000000e+00 0.000000e+00
7.000000e-01 0.000000e+00 0.000000e+00
7.100000e-01 0.000000e+00 0.000000e+00
7.200000e-01 0.000000e+00 0.000000e+00
7.300000e-01 0.000000e+00 0.000000e+00
7.400000e-01 0.000000e+00 0.000000e+00
7.500000e-01 0.000000e+00 0.000000e+00
7.600000e-01 0.000000e+00 0.000000e+00
7.700000e-01 0.000000e+00 0.000000e+00
7.800000e-01 0.000000e+00 0.000000e+00
7.900000e-01 0.000000e+00 0.000000e+00
8.000000e-01 0.000000e+00 0.000000e+00
8.100000e-01 0.000000e+00 0.000000e+00
8.200000e-01 0.000000e+00 0.000000e+00
8.300000e-01 0.000000e+00 0.000000e+00
8.400000e-01 0.000000e+00 0.000000e+00
8.500000e-01 0.000000e+00 0.000000e+00
8.600000e-01 0.000000e+00 0.000000e+00
8.700000e-01 0.000000e+00 0.000000e+00
8.800000e-01 0.000000e+00 0.000000e+00
8.900000e-01 0.000000e+00 0.000000e+00
9.000000e-01 0.000000e+00 0.000000e+00
9.100000e-01 0.000000e+00 0.000000e+00
9.200000e-01 0.000000e+00 0.000000e+00
9.300000e-01 0.000000e+00 0.000000e+00
9.400000e-01 0.000000e+00 0.000000e+00
9.500000e-01 0.000000e+00 0.000000e+00
9.600000e-01 0.000000e+00 0.000000e+00
9.700000e-01 0.000000e+00 0.000000e+00
9.800000e-01 0.000000e+00 0.000000e+00
9.900000e-01 0.000000e+00 0.000000e+00
1.000000e+00 0.000000e+00 0.000000e+00
1.010000e+00 0.000000e+00 0.000000e+00
1.020000e+00 0.000000e+00 0.000000e+00
1.030000e+00 0.000000e+00 0.000000e+00
1.040000e+00 0.000000e+00 0.000000e+00
1.050000e+00 0.000000e+00 0.000000e+00
1.060000e+00 0.000000e+00 0.000000e+00
1.070000e+00 0.000000e+00 0.000000e+00
1.080000e+00 0.000000e+00 0.000000e+00
1.090000e+00 0.000000e+00 0.000000e+00
1.100000e+00 0.000000e+00 0.000000e+00
1.110000e+00 0.000000e+00 0.000000e+00
1.120000e+00 0.000000e+00 0.000000e+00
1.130000e+00 0.000000e+00 0.000000e+00
1.140000e+00 0.000000e+00 0.000000e+00
1.150000e+00 0.000000e+00 0.000000e+00
1.160000e+00 0.000000e+00 0.000000e+00
1.170000e+00 0.000000e+00 0.000000e+00
1.180000e+00 0.000000e+00 0.000000e+00
1.190000e+00 0.000000e+00 0.000000e+00
1.200000e+00 0.000000e+00 0.000000e+00
1.210000e+00 0.000000e+00 0.000000e+00
1.220000e+00 0.000000e+00 0.000000e+00
1.230000e+00 0.000000e+00 0.000000e+00
1.240000e+00 0.000000e+00 0.000000e+00
1.250000e+00 0.000000e+00 0.000000e+00
1.260000e+00 0.000000e+00 0.000000e+00
1.270000e+00 0.000000e+00 0.000000e+00
1.280000e+00 0.000000e+00 0.000000e+00
1.290000e+00 0.000000e+00 0.000000e+00
1.300000e+00 0.000000e+00 0.000000e+00
1.310000e+00 0.000000e+00 0.000000e+00
1.320000e+00 0.000000e+00 0.000000e+00
1.330000e+00 0.000000e+00 0.000000e+00
1.340000e+00 0.000000e+00 0.000000e+00
1.350000e+00 0.000000e+00 0.000000e+00
1.360000e+00 0.000000e+00 0.000000e+00
1.370000e+00 0.000000e+00 0.000000e+00
1.380000e+00 0.000000e+00 0.000000e+00
1.390000e+00 0.000000e+00 0.000000e+00
1.400000e+00 0.000000e+00 0.000000e+00
1.410000e+00 0.000000e+00 0.000000e+00
1.420000e+00 0.000000e+00 0.000000e+00
1.430000e+00 0.000000e+00 0.000000e+00
1.440000e+00 0.000000e+00 0.000000e+00
1.450000e+00 0.000000e+00 0.000000e+00
1.460000e+00 0.000000e+00 0.000000e+00
1.470000e+00 0.000000e+00 0.000000e+00
1.480000e+00 0.000000e+00 0.000000e+00
1.490000e+00 0.000000e+00 0.000000e+00
1.500000e+00 0.000000e+00 0.000000e+00
1.510000e+00 0.000000e+00 0.000000e+00
1.520000e+00 0.000000e+00 0.000000e+00
1.530000e+00 0.000000e+00 0.000000e+00
1.540000e+00 0.000000e+00 0.000000e+00
1.550000e+00 0.000000e+00 0.000000e+00
1.560000e+00 0.000000e+00 0.000000e+00
1.570000e+00 0.000000e+00 0.000000e+00
1.580000e+00 0.000000e+00 0.000000e+00
1.590000e+00 0.000000e+00 0.000000e+00
1.600000e+00 0.000000e+00 0.000000e+00
1.610000e+00 0.000000e+00 0.000000e+00
1.620000e+00 0.000000e+00 0.000000e+00
1.630000e+00 0.000000e+00 0.000000e+00
1.640000e+00 0.000000e+00 0.000000e+00
1.650000e+00 0.000000e+00 0.000000e+00
1.660000e+00 0.000000e+00 0.000000e+00
1.670000e+00 0.000000e+00 0.000000e+00
1.680000e+00 0.000000e+00 0.000000e+00
1.690000e+00 0.000000e+00 0.000000e+00
1.700000e+00 0.000000e+00 0.000000e+00
1.710000e+00 0.000000e+00 0.000000e+00
1.720000e+00 0.000000e+00 0.000000e+00
1.730000e+00 0.000000e+00 0.000000e+00
1.740000e+00 0.000000e+00 0.000000e+00
1.750000e+00 0.000000e+00 0.000000e+00
1.760000e+00 0.000000e+00 0.000000e+00
1.770000e+00 0.000000e+00 0.000000e+00
1.780000e+00 0.000000e+00 0.000000e+00
1.790000e+00 0.000000e+00 0.000000e+00
1.800000e+00 0.000000e+00 0.000000e+00
1.810000e+00 0.000000e+00 0.000000e+00
1.820000e+00 0.000000e+00 0.000000e+00
1.830000e+00 0.000000e+00 0.000000e+00
1.840000e+00 0.000000e+00 0.000000e+00
1.850000e+00 0.000000e+00 0.000000e+00
1.860000e+00 0.000000e+00 0.000000e+00
1.870000e+00 0.000000e+00 0.000000e+00
1.880000e+00 0.000000e+00 0.000000e+00
1.890000e+00 0.000000e+00 0.000000e+00
1.900000e+00 0.000000e+00 0.000000e+00
1.910000e+00 0.000000e+00 0.000000e+00
1.920000e+00 0.000000e+00 0.000000e+00
1.930000e+00 0.000000e+00 0.000000e+00
1.940000e+00 0.000000e+00 0.000000e+00
1.950000e+00 0.000000e+00 0.000000e+00
1.960000e+00 0.000000e+00 0.000000e+00
1.970000e+00 0.000000e+00 0.000000e+00
1.980000e+00 0.000000e+00 0.000000e+00
1.990000e+00 0.000000e+00 0.000000e+00
2.000000e+00 0.000000e+00 0.000000e+00
2.010000e+00 0.000000e+00 0.000000e+00
2.020000e+00 0.000000e+00 0.000000e+00
2.030000e+00 0.000000e+00 0.000000e+00
2.040000e+00 0.000000e+00 0.000000e+00
2.050000e+00 0.000000e+00 0.000000e+00
2.060000e+00 0.000000e+00 0.000000e+00
2.070000e+00 0.000000e+00 0.000000e+00
2.080000e+00 0.000000e+00 0.000000e+00
2.090000e+00 0.000000e+00 0.000000e+00
2.100000e+00 0.000000e+00 0.000000e+00
2.110000e+00 0.000000e+00 0.000000e+00
2.120000e+00 0.000000e+00 0.000000e+00
2.130000e+00 0.000000e+00 0.000000e+00
2.140000e+00 0.000000e+00 0.000000e+00
2.150000e+00 0.000000e+00 0.000000e+00
2.160000e+00 0.000000e+00 0.000000e+00
2.170000e+00 0.000000e+00 0.000000e+00
2.180000e+00 0.000000e+00 0.000000e+00
2.190000e+00 0.000000e+00 0.000000e+00
2.200000e+00 0.000000e+00 0.000000e+00
2.210000e+00 0.000000e+00 0.000000e+00
2.220000e+00 0.000000e+00 0.000000e+00
2.230000e+00 0.000000e+00 0.000000e+00
2.240000e+00 0.000000e+00 0.000000e+00
2.250000e+00 0.000000e+00 0.000000e+00
2.260000e+00 0.000000e+00 0.000000e+00
2.270000e+00 0.000000e+00 0.000000e+00
2.280000e+00 0.000000e+00 0.000000e+00
2.290000e+00 0.000000e+00 0.000000e+00
2.300000e+00 0.000000e+00 0.000000e+00
2.310000e+00 0.000000e+00 0.000000e+00
2.320000e+00 0.000000e+00 0.000000e+00
2.330000e+00 0.000000e+00 0.000000e+00
2.340000e+00 0.000000e+00 0.000000e+00
2.350000e+00 0.000000e+00 0.000000e+00
2.360000e+00 0.000000e+00 0.000000e+00
2.370000e+00 0.000000e+00 0.000000e+00
2.380000e+00 0.000000e+00 0.000000e+00
2.390000e+00 0.000000e+00 0.000000e+00
2.400000e+00 0.000000e+00 0.000000e+00
2.410000e+00 0.000000e+00 0.000000e+00
2.420000e+00 0.000000e+00 0.000000e+00
2.430000e+00 0.000000e+00 0.000000e+00
2.440000e+00 0.000000e+00 0.000000e+00
2.450000e+00 0.000000e+00 0.000000e+00
2.460000e+00 0.000000e+00 0.000000e+00
2.470000e+00 0.000000e+00 0.000000e+00
2.480000e+00 0.000000e+00 0.000000e+00
2.490000e+00 0.000000e+00 0.000000e+00
2.500000e+00 0.000000e+00 0.000000e+00
2.510000e+00 0.000000e+00 0.000000e+00
2.520000e+00 0.000000e+00 0.000000e+00
2.530000e+00 0.000000e+00 0.000000e+00
[...]
POINT_DATA 501
SCALARS vm float 1
LOOKUP_TABLE default
1.663477e-01
1.666501e-01
1.672527e-01
1.681480e-01
1.693238e-01
1.707956e-01
1.724727e-01
1.743499e-01
1.764269e-01
1.786987e-01
1.811458e-01
1.837671e-01
1.865540e-01
1.894955e-01
1.925892e-01
1.958270e-01
1.991994e-01
2.027058e-01
2.063380e-01
2.100861e-01
2.139525e-01
2.179287e-01
2.220038e-01
2.261834e-01
2.304588e-01
2.348187e-01
2.392699e-01
2.438044e-01
2.484120e-01
2.530986e-01
2.578572e-01
2.626795e-01
2.675705e-01
2.725193e-01
2.775302e-01
2.825983e-01
2.877135e-01
2.928853e-01
2.981057e-01
3.033663e-01
3.086754e-01
3.140259e-01
3.194117e-01
3.248393e-01
3.302973e-01
3.357941e-01
3.413238e-01
3.468774e-01
3.524658e-01
3.580820e-01
3.637187e-01
3.693847e-01
3.750715e-01
3.807812e-01
3.865139e-01
3.922603e-01
3.980315e-01
4.038207e-01
4.096205e-01
4.154414e-01
4.212770e-01
4.271224e-01
4.329856e-01
4.388561e-01
4.447428e-01
4.506415e-01
4.565440e-01
4.624625e-01
4.683901e-01
4.743210e-01
4.802647e-01
4.862127e-01
4.921693e-01
4.981345e-01
5.040992e-01
5.100761e-01
5.160584e-01
5.220395e-01
5.280306e-01
5.340254e-01
5.400201e-01
5.460230e-01
5.520231e-01
5.580320e-01
5.640442e-01
5.700524e-01
5.760687e-01
5.820870e-01
5.881023e-01
5.941239e-01
6.001425e-01
6.061659e-01
6.121918e-01
6.182121e-01
6.242394e-01
6.302675e-01
6.362907e-01
6.423192e-01
6.483451e-01
6.543722e-01
6.604018e-01
6.664249e-01
6.724543e-01
6.784838e-01
6.845069e-01
6.905351e-01
6.965627e-01
7.025857e-01
7.086128e-01
7.146341e-01
7.206594e-01
7.266853e-01
7.327039e-01
7.387278e-01
7.447511e-01
7.507685e-01
7.567899e-01
7.628063e-01
7.688251e-01
7.748446e-01
7.808567e-01
7.868741e-01
7.928910e-01
7.989013e-01
8.049156e-01
8.109265e-01
8.169371e-01
8.229492e-01
8.289541e-01
8.349643e-01
8.409740e-01
8.469765e-01
8.529836e-01
8.589898e-01
8.649907e-01
8.709953e-01
8.769940e-01
8.829963e-01
8.889988e-01
8.949941e-01
9.009944e-01
9.069942e-01
9.129879e-01
9.189856e-01
9.249786e-01
9.309738e-01
9.369698e-01
9.429586e-01
9.489529e-01
9.549468e-01
9.609343e-01
9.669261e-01
9.729149e-01
9.789034e-01
9.848937e-01
9.908774e-01
9.968664e-01
1.002855e+00
1.008837e+00
1.014824e+00
1.020811e+00
1.026793e+00
1.032778e+00
1.038758e+00
1.044743e+00
1.050727e+00
1.056705e+00
1.062689e+00
1.068672e+00
1.074650e+00
1.080631e+00
1.086610e+00
1.092590e+00
1.098571e+00
1.104546e+00
1.110527e+00
1.116508e+00
1.122483e+00
1.128462e+00
1.134439e+00
1.140416e+00
1.146396e+00
1.152369e+00
1.158348e+00
1.164327e+00
1.170300e+00
1.176278e+00
1.182257e+00
1.188230e+00
1.194208e+00
1.200182e+00
1.206159e+00
1.212137e+00
1.218109e+00
1.224087e+00
1.230066e+00
1.236039e+00
1.242016e+00
1.247991e+00
1.253967e+00
1.259945e+00
1.265918e+00
1.271896e+00
1.277875e+00
1.283848e+00
1.289826e+00
1.295803e+00
1.301779e+00
1.307758e+00
1.313732e+00
1.319711e+00
1.325691e+00
1.331665e+00
1.337644e+00
1.343624e+00
1.349600e+00
1.355580e+00
1.361556e+00
1.367536e+00
1.373518e+00
1.379494e+00
1.385475e+00
1.391458e+00
1.397435e+00
1.403417e+00
1.409397e+00
1.415378e+00
1.421362e+00
1.427340e+00
1.433324e+00
1.439309e+00
1.445289e+00
1.451274e+00
1.457258e+00
1.463241e+00
1.469227e+00
1.475208e+00
1.481195e+00
1.487183e+00
1.493165e+00
1.499153e+00
1.505142e+00
1.511126e+00
1.517115e+00
1.523101e+00
1.529090e+00
1.535081e+00
1.541067e+00
1.547058e+00
1.553051e+00
1.559038e+00
1.565030e+00
1.571021e+00
1.577013e+00
1.583007e+00
1.588996e+00
1.594992e+00
1.600988e+00
1.606979e+00
1.612975e+00
1.618971e+00
1.624965e+00
1.630963e+00
1.636956e+00
1.642955e+00
1.648955e+00
1.654949e+00
1.660949e+00
1.666950e+00
1.672947e+00
1.678948e+00
1.684946e+00
1.690948e+00
1.696952e+00
1.702950e+00
1.708954e+00
1.714959e+00
1.720959e+00
1.726964e+00
1.732967e+00
1.738972e+00
1.744979e+00
1.750981e+00
1.756988e+00
1.762997e+00
1.769001e+00
1.775009e+00
1.781018e+00
1.787024e+00
1.793034e+00
1.799040e+00
1.805051e+00
1.811063e+00
1.817069e+00
1.823081e+00
1.829094e+00
1.835102e+00
1.841115e+00
1.847126e+00
1.853138e+00
1.859153e+00
1.865162e+00
1.871176e+00
1.877192e+00
1.883203e+00
1.889218e+00
1.895231e+00
1.901246e+00
1.907262e+00
1.913274e+00
1.919290e+00
1.925308e+00
1.931320e+00
1.937336e+00
1.943354e+00
1.949367e+00
1.955384e+00
1.961398e+00
1.967415e+00
1.973433e+00
1.979445e+00
1.985462e+00
1.991481e+00
1.997494e+00
2.003510e+00
2.009525e+00
2.015540e+00
2.021557e+00
2.027569e+00
2.033585e+00
2.039602e+00
2.045613e+00
2.051628e+00
2.057641e+00
2.063654e+00
2.069668e+00
2.075677e+00
2.081690e+00
2.087704e+00
2.093711e+00
2.099722e+00
2.105732e+00
2.111738e+00
2.117747e+00
2.123751e+00
2.129758e+00
2.135765e+00
2.141765e+00
2.147769e+00
2.153773e+00
2.159770e+00
2.165770e+00
2.171767e+00
2.177763e+00
2.183760e+00
2.189749e+00
2.195743e+00
2.201735e+00
2.207720e+00
2.213707e+00
2.219691e+00
2.225674e+00
2.231655e+00
2.237630e+00
2.243607e+00
2.249582e+00
2.255550e+00
2.261519e+00
2.267487e+00
2.273446e+00
2.279407e+00
2.285361e+00
2.291315e+00
2.297267e+00
2.303209e+00
2.309154e+00
2.315095e+00
2.321027e+00
2.326959e+00
2.332885e+00
2.338808e+00
2.344727e+00
2.350637e+00
2.356547e+00
2.362453e+00
2.368348e+00
2.374242e+00
2.380129e+00
2.386010e+00
2.391886e+00
2.397753e+00
2.403617e+00
2.409475e+00
2.415321e+00
2.421164e+00
2.427001e+00
2.432825e+00
2.438645e+00
2.444455e+00
2.450258e+00
2.456053e+00
2.461835e+00
2.467612e+00
2.473380e+00
2.479133e+00
2.484880e+00
2.490614e+00
2.496339e+00
2.502053e+00
2.507751e+00
2.513442e+00
2.519121e+00
2.524782e+00
2.530434e+00
2.536071e+00
2.541694e+00
2.547304e+00
2.552895e+00
2.558474e+00
2.564039e+00
2.569581e+00
2.575111e+00
2.580626e+00
2.586116e+00
2.591592e+00
2.597047e+00
2.602483e+00
2.607901e+00
2.613292e+00
2.618667e+00
2.624021e+00
2.629347e+00
2.634652e+00
2.639932e+00
2.645188e+00
2.650419e+00
2.655620e+00
2.660797e+00
2.665947e+00
2.671063e+00
2.676154e+00
2.681213e+00
2.686240e+00
2.691236e+00
2.696195e+00
2.701123e+00
2.706017e+00
2.710869e+00
2.715689e+00
2.720471e+00
2.725209e+00
2.729909e+00
2.734565e+00
2.739181e+00
2.743753e+00
2.748274e+00
2.752754e+00
2.757187e+00
2.761565e+00
2.765896e+00
2.770174e+00
2.774399e+00
2.778569e+00
2.782679e+00
2.786735e+00
2.790731e+00
2.794661e+00
2.798532e+00
2.802338e+00
2.806076e+00
2.809746e+00
2.813344e+00
2.816872e+00
2.820325e+00
2.823698e+00
2.826996e+00
2.830214e+00
2.833344e+00
2.836391e+00
2.839348e+00
2.842215e+00
2.844989e+00
2.847662e+00
2.850240e+00
2.852715e+00
2.855078e+00
2.857335e+00
2.859478e+00
2.861499e+00
2.863399e+00
2.865173e+00
2.866813e+00
2.868311e+00
2.869674e+00
2.870884e+00
2.871932e+00
2.872803e+00
2.873517e+00
2.874066e+00
2.874440e+00
2.874629e+00
