# vtk DataFile Version 3.0
Monodomain MVF
ASCII
DATASET POLYDATA
POINTS 501 float
0.000000e+00 0.000000e+00 0.000000e+00
1.000000e-02 0.000000e+00 0.000000e+00
2.000000e-02 0.000000e+00 0.000000e+00
3.000000e-02 0.000000e+00 0.000000e+00
4.000000e-02 0.000000e+00 0.000000e+00
5.000000e-02 0.000000e+00 0.000000e+00
6.000000e-02 0.000000e+00 0.000000e+00
7.000000e-02 0.000000e+00 0.000000e+00
8.000000e-02 0.000000e+00 0.000000e+00
9.000000e-02 0.000000e+00 0.000000e+00
1.000000e-01 0.000000e+00 0.000000e+00
1.100000e-01 0.000000e+00 0.000000e+00
1.200000e-01 0.000000e+00 0.000000e+00
1.300000e-01 0.000000e+00 0.000000e+00
1.400000e-01 0.000000e+00 0.000000e+00
1.500000e-01 0.000000e+00 0.000000e+00
1.600000e-01 0.000000e+00 0.000000e+00
1.700000e-01 0.000000e+00 0.000000e+00
1.800000e-01 0.000000e+00 0.000000e+00
1.900000e-01 0.000000e+00 0.000000e+00
2.000000e-01 0.000000e+00 0.000000e+00
2.100000e-01 0.000000e+00 0.000000e+00
2.200000e-01 0.000000e+00 0.000000e+00
2.300000e-01 0.000000e+00 0.000000e+00
2.400000e-01 0.000000e+00 0.000000e+00
2.500000e-01 0.000000e+00 0.000000e+00
2.600000e-01 0.000000e+00 0.000000e+00
2.700000e-01 0.000000e+00 0.000000e+00
2.800000e-01 0.000000e+00 0.000000e+00
2.900000e-01 0.000000e+00 0.000000e+00
3.000000e-01 0.000000e+00 0.000000e+00
3.100000e-01 0.000000e+00 0.000000e+00
3.200000e-01 0.000000e+00 0.000000e+00
3.300000e-01 0.000000e+00 0.000000e+00
3.400000e-01 0.000000e+00 0.000000e+00
3.500000e-01 0.000000e+00 0.000000e+00
3.600000e-01 0.000000e+00 0.000000e+00
3.700000e-01 0.000000e+00 0.000000e+00
3.800000e-01 0.000000e+00 0.000000e+00
3.900000e-01 0.000000e+00 0.000000e+00
4.000000e-01 0.000000e+00 0.000000e+00
4.100000e-01 0.000000e+00 0.000000e+00
4.200000e-01 0.000000e+00 0.000000e+00
4.300000e-01 0.000000e+00 0.000000e+00
4.400000e-01 0.000000e+00 0.000000e+00
4.500000e-01 0.000000e+00 0.000000e+00
4.600000e-01 0.000000e+00 0.000000e+00
4.700000e-01 0.000000e+00 0.000000e+00
4.800000e-01 0.000000e+00 0.000000e+00
4.900000e-01 0.000000e+00 0.000000e+00
5.000000e-01 0.000000e+00 0.000000e+00
5.100000e-01 0.000000e+00 0.000000e+00
5.200000e-01 0.000000e+00 0.000000e+00
5.300000e-01 0.000000e+00 0.000000e+00
5.400000e-01 0.000000e+00 0.000000e+00
5.500000e-01 0.000000e+00 0.000000e+00
5.600000e-01 0.000000e+00 0.000000e+00
5.700000e-01 0.000000e+00 0.000000e+00
5.800000e-01 0.000000e+00 0.000000e+00
5.900000e-01 0.000000e+00 0.000000e+00
6.000000e-01 0.000000e+00 0.000000e+00
6.100000e-01 0.000000e+00 0.000000e+00
6.200000e-01 0.000000e+00 0.000000e+00
6.300000e-01 0.000000e+00 0.000000e+00
6.400000e-01 0.000000e+00 0.000000e+00
6.500000e-01 0.000000e+00 0.000000e+00
6.600000e-01 0.000000e+00 0.000000e+00
6.700000e-01 0.000000e+00 0.000000e+00
6.800000e-01 0.000000e+00 0.000000e+00
6.900000e-01 0.000000e+00 0.000000e+00
7.000000e-01 0.000000e+00 0.000000e+00
7.100000e-01 0.000000e+00 0.000000e+00
7.200000e-01 0.000000e+00 0.000000e+00
7.300000e-01 0.000000e+00 0.000000e+00
7.400000e-01 0.000000e+00 0.000000e+00
7.500000e-01 0.000000e+00 0.000000e+00
7.600000e-01 0.000000e+00 0.000000e+00
7.700000e-01 0.000000e+00 0.000000e+00
7.800000e-01 0.000000e+00 0.000000e+00
7.900000e-01 0.000000e+00 0.000000e+00
8.000000e-01 0.000000e+00 0.000000e+00
8.100000e-01 0.000000e+00 0.000000e+00
8.200000e-01 0.000000e+00 0.000000e+00
8.300000e-01 0.000000e+00 0.000000e+00
8.400000e-01 0.000000e+00 0.000000e+00
8.500000e-01 0.000000e+00 0.000000e+00
8.600000e-01 0.000000e+00 0.000000e+00
8.700000e-01 0.000000e+00 0.000000e+00
8.800000e-01 0.000000e+00 0.000000e+00
8.900000e-01 0.000000e+00 0.000000e+00
9.000000e-01 0.000000e+00 0.000000e+00
9.100000e-01 0.000000e+00 0.000000e+00
9.200000e-01 0.000000e+00 0.000000e+00
9.300000e-01 0.000000e+00 0.000000e+00
9.400000e-01 0.000000e+00 0.000000e+00
9.500000e-01 0.000000e+00 0.000000e+00
9.600000e-01 0.000000e+00 0.000000e+00
9.700000e-01 0.000000e+00 0.000000e+00
9.800000e-01 0.000000e+00 0.000000e+00
9.900000e-01 0.000000e+00 0.000000e+00
1.000000e+00 0.000000e+00 0.000000e+00
1.010000e+00 0.000000e+00 0.000000e+00
1.020000e+00 0.000000e+00 0.000000e+00
1.030000e+00 0.000000e+00 0.000000e+00
1.040000e+00 0.000000e+00 0.000000e+00
1.050000e+00 0.000000e+00 0.000000e+00
1.060000e+00 0.000000e+00 0.000000e+00
1.070000e+00 0.000000e+00 0.000000e+00
1.080000e+00 0.000000e+00 0.000000e+00
1.090000e+00 0.000000e+00 0.000000e+00
1.100000e+00 0.000000e+00 0.000000e+00
1.110000e+00 0.000000e+00 0.000000e+00
1.120000e+00 0.000000e+00 0.000000e+00
1.130000e+00 0.000000e+00 0.000000e+00
1.140000e+00 0.000000e+00 0.000000e+00
1.150000e+00 0.000000e+00 0.000000e+00
1.160000e+00 0.000000e+00 0.000000e+00
1.170000e+00 0.000000e+00 0.000000e+00
1.180000e+00 0.000000e+00 0.000000e+00
1.190000e+00 0.000000e+00 0.000000e+00
1.200000e+00 0.000000e+00 0.000000e+00
1.210000e+00 0.000000e+00 0.000000e+00
1.220000e+00 0.000000e+00 0.000000e+00
1.230000e+00 0.000000e+00 0.000000e+00
1.240000e+00 0.000000e+00 0.000000e+00
1.250000e+00 0.000000e+00 0.000000e+00
1.260000e+00 0.000000e+00 0.000000e+00
1.270000e+00 0.000000e+00 0.000000e+00
1.280000e+00 0.000000e+00 0.000000e+00
1.290000e+00 0.000000e+00 0.000000e+00
1.300000e+00 0.000000e+00 0.000000e+00
1.310000e+00 0.000000e+00 0.000000e+00
1.320000e+00 0.000000e+00 0.000000e+00
1.330000e+00 0.000000e+00 0.000000e+00
1.340000e+00 0.000000e+00 0.000000e+00
1.350000e+00 0.000000e+00 0.000000e+00
1.360000e+00 0.000000e+00 0.000000e+00
1.370000e+00 0.000000e+00 0.000000e+00
1.380000e+00 0.000000e+00 0.000000e+00
1.390000e+00 0.000000e+00 0.000000e+00
1.400000e+00 0.000000e+00 0.000000e+00
1.410000e+00 0.000000e+00 0.000000e+00
1.420000e+00 0.000000e+00 0.000000e+00
1.430000e+00 0.000000e+00 0.000000e+00
1.440000e+00 0.000000e+00 0.000000e+00
1.450000e+00 0.000000e+00 0.000000e+00
1.460000e+00 0.000000e+00 0.000000e+00
1.470000e+00 0.000000e+00 0.000000e+00
1.480000e+00 0.000000e+00 0.000000e+00
1.490000e+00 0.000000e+00 0.000000e+00
1.500000e+00 0.000000e+00 0.000000e+00
1.510000e+00 0.000000e+00 0.000000e+00
1.520000e+00 0.000000e+00 0.000000e+00
1.530000e+00 0.000000e+00 0.000000e+00
1.540000e+00 0.000000e+00 0.000000e+00
1.550000e+00 0.000000e+00 0.000000e+00
1.560000e+00 0.000000e+00 0.000000e+00
1.570000e+00 0.000000e+00 0.000000e+00
1.580000e+00 0.000000e+00 0.000000e+00
1.590000e+00 0.000000e+00 0.000000e+00
1.600000e+00 0.000000e+00 0.000000e+00
1.610000e+00 0.000000e+00 0.000000e+00
1.620000e+00 0.000000e+00 0.000000e+00
1.630000e+00 0.000000e+00 0.000000e+00
1.640000e+00 0.000000e+00 0.000000e+00
1.650000e+00 0.000000e+00 0.000000e+00
1.660000e+00 0.000000e+00 0.000000e+00
1.670000e+00 0.000000e+00 0.000000e+00
1.680000e+00 0.000000e+00 0.000000e+00
1.690000e+00 0.000000e+00 0.000000e+00
1.700000e+00 0.000000e+00 0.000000e+00
1.710000e+00 0.000000e+00 0.000000e+00
1.720000e+00 0.000000e+00 0.000000e+00
1.730000e+00 0.000000e+00 0.000000e+00
1.740000e+00 0.000000e+00 0.000000e+00
1.750000e+00 0.000000e+00 0.000000e+00
1.760000e+00 0.000000e+00 0.000000e+00
1.770000e+00 0.000000e+00 0.000000e+00
1.780000e+00 0.000000e+00 0.000000e+00
1.790000e+00 0.000000e+00 0.000000e+00
1.800000e+00 0.000000e+00 0.000000e+00
1.810000e+00 0.000000e+00 0.000000e+00
1.820000e+00 0.000000e+00 0.000000e+00
1.830000e+00 0.000000e+00 0.000000e+00
1.840000e+00 0.000000e+00 0.000000e+00
1.850000e+00 0.000000e+00 0.000000e+00
1.860000e+00 0.000000e+00 0.000000e+00
1.870000e+00 0.000000e+00 0.000000e+00
1.880000e+00 0.000000e+00 0.000000e+00
1.890000e+00 0.000000e+00 0.000000e+00
1.900000e+00 0.000000e+00 0.000000e+00
1.910000e+00 0.000000e+00 0.000000e+00
1.920000e+00 0.000000e+00 0.000000e+00
1.930000e+00 0.000000e+00 0.000000e+00
1.940000e+00 0.000000e+00 0.000000e+00
1.950000e+00 0.000000e+00 0.000000e+00
1.960000e+00 0.000000e+00 0.000000e+00
1.970000e+00 0.000000e+00 0.000000e+00
1.980000e+00 0.000000e+00 0.000000e+00
1.990000e+00 0.000000e+00 0.000000e+00
2.000000e+00 0.000000e+00 0.000000e+00
2.010000e+00 0.000000e+00 0.000000e+00
2.020000e+00 0.000000e+00 0.000000e+00
2.030000e+00 0.000000e+00 0.000000e+00
2.040000e+00 0.000000e+00 0.000000e+00
2.050000e+00 0.000000e+00 0.000000e+00
2.060000e+00 0.000000e+00 0.000000e+00
2.070000e+00 0.000000e+00 0.000000e+00
2.080000e+00 0.000000e+00 0.000000e+00
2.090000e+00 0.000000e+00 0.000000e+00
2.100000e+00 0.000000e+00 0.000000e+00
2.110000e+00 0.000000e+00 0.000000e+00
2.120000e+00 0.000000e+00 0.000000e+00
2.130000e+00 0.000000e+00 0.000000e+00
2.140000e+00 0.000000e+00 0.000000e+00
2.150000e+00 0.000000e+00 0.000000e+00
2.160000e+00 0.000000e+00 0.000000e+00
2.170000e+00 0.000000e+00 0.000000e+00
2.180000e+00 0.000000e+00 0.000000e+00
2.190000e+00 0.000000e+00 0.000000e+00
2.200000e+00 0.000000e+00 0.000000e+00
2.210000e+00 0.000000e+00 0.000000e+00
2.220000e+00 0.000000e+00 0.000000e+00
2.230000e+00 0.000000e+00 0.000000e+00
2.240000e+00 0.000000e+00 0.000000e+00
2.250000e+00 0.000000e+00 0.000000e+00
2.260000e+00 0.000000e+00 0.000000e+00
2.270000e+00 0.000000e+00 0.000000e+00
2.280000e+00 0.000000e+00 0.000000e+00
2.290000e+00 0.000000e+00 0.000000e+00
2.300000e+00 0.000000e+00 0.000000e+00
2.310000e+00 0.000000e+00 0.000000e+00
2.320000e+00 0.000000e+00 0.000000e+00
2.330000e+00 0.000000e+00 0.000000e+00
2.340000e+00 0.000000e+00 0.000000e+00
2.350000e+00 0.000000e+00 0.000000e+00
2.360000e+00 0.000000e+00 0.000000e+00
2.370000e+00 0.000000e+00 0.000000e+00
2.380000e+00 0.000000e+00 0.000000e+00
2.390000e+00 0.000000e+00 0.000000e+00
2.400000e+00 0.000000e+00 0.000000e+00
2.410000e+00 0.000000e+00 0.000000e+00
2.420000e+00 0.000000e+00 0.000000e+00
2.430000e+00 0.000000e+00 0.000000e+00
2.440000e+00 0.000000e+00 0.000000e+00
2.450000e+00 0.000000e+00 0.000000e+00
2.460000e+00 0.000000e+00 0.000000e+00
2.470000e+00 0.000000e+00 0.000000e+00
2.480000e+00 0.000000e+00 0.000000e+00
2.490000e+00 0.000000e+00 0.000000e+00
2.500000e+00 0.000000e+00 0.000000e+00
2.510000e+00 0.000000e+00 0.000000e+00
2.520000e+00 0.000000e+00 0.000000e+00
2.530000e+00 0.000000e+00 0.000000e+00
[...]
POINT_DATA 501
SCALARS vm float 1
LOOKUP_TABLE default
5.083305e+00
5.083629e+00
5.084275e+00
5.085234e+00
5.086495e+00
5.088075e+00
5.089872e+00
5.091880e+00
5.094100e+00
5.096528e+00
5.099139e+00
5.101935e+00
5.104908e+00
5.108042e+00
5.111337e+00
5.114785e+00
5.118374e+00
5.122104e+00
5.125967e+00
5.129951e+00
5.134060e+00
5.138286e+00
5.142613e+00
5.147052e+00
5.151591e+00
5.156218e+00
5.160941e+00
5.165752e+00
5.170638e+00
5.175608e+00
5.180653e+00
5.185763e+00
5.190947e+00
5.196190e+00
5.201498e+00
5.206866e+00
5.212281e+00
5.217757e+00
5.223283e+00
5.228850e+00
5.234468e+00
5.240129e+00
5.245826e+00
5.251567e+00
5.257338e+00
5.263149e+00
5.268996e+00
5.274865e+00
5.280771e+00
5.286706e+00
5.292661e+00
5.298647e+00
5.304653e+00
5.310683e+00
5.316737e+00
5.322804e+00
5.328897e+00
5.335009e+00
5.341129e+00
5.347273e+00
5.353431e+00
5.359598e+00
5.365784e+00
5.371977e+00
5.378186e+00
5.384408e+00
5.390632e+00
5.396874e+00
5.403124e+00
5.409377e+00
5.415643e+00
5.421913e+00
5.428192e+00
5.434480e+00
5.440765e+00
5.447064e+00
5.453369e+00
5.459670e+00
5.465983e+00
5.472299e+00
5.478614e+00
5.484939e+00
5.491258e+00
5.497588e+00
5.503921e+00
5.510249e+00
5.516585e+00
5.522924e+00
5.529258e+00
5.535599e+00
5.541936e+00
5.548279e+00
5.554625e+00
5.560962e+00
5.567309e+00
5.573656e+00
5.579996e+00
5.586344e+00
5.592687e+00
5.599032e+00
5.605380e+00
5.611720e+00
5.618067e+00
5.624414e+00
5.630754e+00
5.637099e+00
5.643444e+00
5.649783e+00
5.656128e+00
5.662465e+00
5.668807e+00
5.675150e+00
5.681484e+00
5.687824e+00
5.694164e+00
5.700497e+00
5.706834e+00
5.713166e+00
5.719501e+00
5.725836e+00
5.732163e+00
5.738496e+00
5.744829e+00
5.751154e+00
5.757484e+00
5.763810e+00
5.770135e+00
5.776463e+00
5.782782e+00
5.789108e+00
5.795433e+00
5.801750e+00
5.808072e+00
5.814393e+00
5.820708e+00
5.827028e+00
5.833340e+00
5.839657e+00
5.845975e+00
5.852284e+00
5.858599e+00
5.864913e+00
5.871220e+00
5.877533e+00
5.883839e+00
5.890149e+00
5.896459e+00
5.902761e+00
5.909070e+00
5.915378e+00
5.921678e+00
5.927984e+00
5.934286e+00
5.940588e+00
5.946893e+00
5.953189e+00
5.959492e+00
5.965795e+00
5.972089e+00
5.978390e+00
5.984690e+00
5.990984e+00
5.997283e+00
6.003575e+00
6.009872e+00
6.016170e+00
6.022460e+00
6.028756e+00
6.035053e+00
6.041342e+00
6.047637e+00
6.053927e+00
6.060219e+00
6.066513e+00
6.072799e+00
6.079092e+00
6.085385e+00
6.091671e+00
6.097962e+00
6.104251e+00
6.110539e+00
6.116830e+00
6.123114e+00
6.129404e+00
6.135695e+00
6.141978e+00
6.148267e+00
6.154556e+00
6.160839e+00
6.167128e+00
6.173411e+00
6.179698e+00
6.185987e+00
6.192268e+00
6.198556e+00
6.204844e+00
6.211126e+00
6.217413e+00
6.223696e+00
6.229981e+00
6.236269e+00
6.242549e+00
6.248836e+00
6.255124e+00
6.261404e+00
6.267691e+00
6.273975e+00
6.280259e+00
6.286546e+00
6.292826e+00
6.299112e+00
6.305400e+00
6.311680e+00
6.317967e+00
6.324254e+00
6.330535e+00
6.336822e+00
6.343103e+00
6.349389e+00
6.355677e+00
6.361957e+00
6.368245e+00
6.374533e+00
6.380814e+00
6.387102e+00
6.393386e+00
6.399672e+00
6.405960e+00
6.412241e+00
6.418530e+00
6.424819e+00
6.431101e+00
6.437390e+00
6.443677e+00
6.449963e+00
6.456253e+00
6.462536e+00
6.468826e+00
6.475117e+00
6.481400e+00
6.487690e+00
6.493982e+00
6.500267e+00
6.506558e+00
6.512844e+00
6.519135e+00
6.525428e+00
6.531713e+00
6.538006e+00
6.544299e+00
6.550586e+00
6.556880e+00
6.563170e+00
6.569462e+00
6.575757e+00
6.582044e+00
6.588340e+00
6.594636e+00
6.600925e+00
6.607221e+00
6.613516e+00
6.619808e+00
6.626105e+00
6.632397e+00
6.638694e+00
6.644993e+00
6.651285e+00
6.657583e+00
6.663883e+00
6.670177e+00
6.676476e+00
6.682772e+00
6.689071e+00
6.695373e+00
6.701667e+00
6.707969e+00
6.714272e+00
6.720568e+00
6.726871e+00
6.733171e+00
6.739472e+00
6.745777e+00
6.752074e+00
6.758379e+00
6.764685e+00
6.770984e+00
6.777290e+00
6.783596e+00
6.789898e+00
6.796205e+00
6.802506e+00
6.808814e+00
6.815123e+00
6.821424e+00
6.827733e+00
6.834043e+00
6.840347e+00
6.846656e+00
6.852963e+00
6.859272e+00
6.865583e+00
6.871888e+00
6.878200e+00
6.884512e+00
6.890819e+00
6.897131e+00
6.903441e+00
6.909752e+00
6.916065e+00
6.922373e+00
6.928686e+00
6.935001e+00
6.941309e+00
6.947623e+00
6.953938e+00
6.960248e+00
6.966563e+00
6.972873e+00
6.979188e+00
6.985504e+00
6.991812e+00
6.998128e+00
7.004445e+00
7.010755e+00
7.017070e+00
7.023382e+00
7.029696e+00
7.036012e+00
7.042321e+00
7.048637e+00
7.054953e+00
7.061262e+00
7.067577e+00
7.073889e+00
7.080202e+00
7.086516e+00
7.092824e+00
7.099137e+00
7.105451e+00
7.111758e+00
7.118070e+00
7.124381e+00
7.130688e+00
7.136998e+00
7.143303e+00
7.149611e+00
7.155920e+00
7.162221e+00
7.168528e+00
7.174835e+00
7.181134e+00
7.187437e+00
7.193736e+00
7.200037e+00
7.206337e+00
7.212629e+00
7.218927e+00
7.225225e+00
7.231513e+00
7.237806e+00
7.244095e+00
7.250382e+00
7.256670e+00
7.262950e+00
7.269234e+00
7.275516e+00
7.281789e+00
7.288066e+00
7.294341e+00
7.300608e+00
7.306877e+00
7.313139e+00
7.319402e+00
7.325663e+00
7.331914e+00
7.338168e+00
7.344420e+00
7.350661e+00
7.356904e+00
7.363141e+00
7.369375e+00
7.375607e+00
7.381828e+00
7.388051e+00
7.394270e+00
7.400477e+00
7.406685e+00
7.412886e+00
7.419081e+00
7.425273e+00
7.431454e+00
7.437634e+00
7.443809e+00
7.449970e+00
7.456131e+00
7.462286e+00
7.468428e+00
7.474567e+00
7.480695e+00
7.486818e+00
7.492934e+00
7.499034e+00
7.505133e+00
7.511223e+00
7.517298e+00
7.523367e+00
7.529424e+00
7.535473e+00
7.541512e+00
7.547534e+00
7.553551e+00
7.559556e+00
7.565543e+00
7.571522e+00
7.577487e+00
7.583438e+00
7.589378e+00
7.595298e+00
7.601208e+00
7.607103e+00
7.612976e+00
7.618839e+00
7.624687e+00
7.630510e+00
7.636321e+00
7.642110e+00
7.647883e+00
7.653637e+00
7.659365e+00
7.665078e+00
7.670771e+00
7.676435e+00
7.682081e+00
7.687701e+00
7.693298e+00
7.698872e+00
7.704415e+00
7.709936e+00
7.715431e+00
7.720891e+00
7.726327e+00
7.731733e+00
7.737106e+00
7.742450e+00
7.747756e+00
7.753034e+00
7.758277e+00
7.763478e+00
7.768648e+00
7.773782e+00
7.778870e+00
7.783922e+00
7.788930e+00
7.793898e+00
7.798823e+00
7.803696e+00
7.808529e+00
7.813315e+00
7.818045e+00
7.822729e+00
7.827359e+00
7.831935e+00
7.836458e+00
7.840918e+00
7.845324e+00
7.849671e+00
7.853948e+00
7.858166e+00
7.862318e+00
7.866399e+00
7.870413e+00
7.874349e+00
7.878216e+00
7.882005e+00
7.885709e+00
7.889337e+00
7.892881e+00
7.896332e+00
7.899697e+00
7.902966e+00
7.906141e+00
7.909217e+00
7.912184e+00
7.915051e+00
7.917807e+00
7.920441e+00
7.922962e+00
7.925359e+00
7.927622e+00
7.929752e+00
7.931744e+00
7.933587e+00
7.935274e+00
7.936811e+00
7.938176e+00
7.939357e+00
7.940341e+00
7.941151e+00
7.941775e+00
7.942201e+00
7.942417e+00
