# vtk DataFile Version 3.0
Monodomain MVF
ASCII
DATASET POLYDATA
POINTS 501 float
0.000000e+00 0.000000e+00 0.000000e+00
1.000000e-02 0.000000e+00 0.000000e+00
2.000000e-02 0.000000e+00 0.000000e+00
3.000000e-02 0.000000e+00 0.000000e+00
4.000000e-02 0.000000e+00 0.000000e+00
5.000000e-02 0.000000e+00 0.000000e+00
6.000000e-02 0.000000e+00 0.000000e+00
7.000000e-02 0.000000e+00 0.000000e+00
8.000000e-02 0.000000e+00 0.000000e+00
9.000000e-02 0.000000e+00 0.000000e+00
1.000000e-01 0.000000e+00 0.000000e+00
1.100000e-01 0.000000e+00 0.000000e+00
1.200000e-01 0.000000e+00 0.000000e+00
1.300000e-01 0.000000e+00 0.000000e+00
1.400000e-01 0.000000e+00 0.000000e+00
1.500000e-01 0.000000e+00 0.000000e+00
1.600000e-01 0.000000e+00 0.000000e+00
1.700000e-01 0.000000e+00 0.000000e+00
1.800000e-01 0.000000e+00 0.000000e+00
1.900000e-01 0.000000e+00 0.000000e+00
2.000000e-01 0.000000e+00 0.000000e+00
2.100000e-01 0.000000e+00 0.000000e+00
2.200000e-01 0.000000e+00 0.000000e+00
2.300000e-01 0.000000e+00 0.000000e+00
2.400000e-01 0.000000e+00 0.000000e+00
2.500000e-01 0.000000e+00 0.000000e+00
2.600000e-01 0.000000e+00 0.000000e+00
2.700000e-01 0.000000e+00 0.000000e+00
2.800000e-01 0.000000e+00 0.000000e+00
2.900000e-01 0.000000e+00 0.000000e+00
3.000000e-01 0.000000e+00 0.000000e+00
3.100000e-01 0.000000e+00 0.000000e+00
3.200000e-01 0.000000e+00 0.000000e+00
3.300000e-01 0.000000e+00 0.000000e+00
3.400000e-01 0.000000e+00 0.000000e+00
3.500000e-01 0.000000e+00 0.000000e+00
3.600000e-01 0.000000e+00 0.000000e+00
3.700000e-01 0.000000e+00 0.000000e+00
3.800000e-01 0.000000e+00 0.000000e+00
3.900000e-01 0.000000e+00 0.000000e+00
4.000000e-01 0.000000e+00 0.000000e+00
4.100000e-01 0.000000e+00 0.000000e+00
4.200000e-01 0.000000e+00 0.000000e+00
4.300000e-01 0.000000e+00 0.000000e+00
4.400000e-01 0.000000e+00 0.000000e+00
4.500000e-01 0.000000e+00 0.000000e+00
4.600000e-01 0.000000e+00 0.000000e+00
4.700000e-01 0.000000e+00 0.000000e+00
4.800000e-01 0.000000e+00 0.000000e+00
4.900000e-01 0.000000e+00 0.000000e+00
5.000000e-01 0.000000e+00 0.000000e+00
5.100000e-01 0.000000e+00 0.000000e+00
5.200000e-01 0.000000e+00 0.000000e+00
5.300000e-01 0.000000e+00 0.000000e+00
5.400000e-01 0.000000e+00 0.000000e+00
5.500000e-01 0.000000e+00 0.000000e+00
5.600000e-01 0.000000e+00 0.000000e+00
5.700000e-01 0.000000e+00 0.000000e+00
5.800000e-01 0.000000e+00 0.000000e+00
5.900000e-01 0.000000e+00 0.000000e+00
6.000000e-01 0.000000e+00 0.000000e+00
6.100000e-01 0.000000e+00 0.000000e+00
6.200000e-01 0.000000e+00 0.000000e+00
6.300000e-01 0.000000e+00 0.000000e+00
6.400000e-01 0.000000e+00 0.000000e+00
6.500000e-01 0.000000e+00 0.000000e+00
6.600000e-01 0.000000e+00 0.000000e+00
6.700000e-01 0.000000e+00 0.000000e+00
6.800000e-01 0.000000e+00 0.000000e+00
6.900000e-01 0.000000e+00 0.000000e+00
7.000000e-01 0.000000e+00 0.000000e+00
7.100000e-01 0.000000e+00 0.000000e+00
7.200000e-01 0.000000e+00 0.000000e+00
7.300000e-01 0.000000e+00 0.000000e+00
7.400000e-01 0.000000e+00 0.000000e+00
7.500000e-01 0.000000e+00 0.000000e+00
7.600000e-01 0.000000e+00 0.000000e+00
7.700000e-01 0.000000e+00 0.000000e+00
7.800000e-01 0.000000e+00 0.000000e+00
7.900000e-01 0.000000e+00 0.000000e+00
8.000000e-01 0.000000e+00 0.000000e+00
8.100000e-01 0.000000e+00 0.000000e+00
8.200000e-01 0.000000e+00 0.000000e+00
8.300000e-01 0.000000e+00 0.000000e+00
8.400000e-01 0.000000e+00 0.000000e+00
8.500000e-01 0.000000e+00 0.000000e+00
8.600000e-01 0.000000e+00 0.000000e+00
8.700000e-01 0.000000e+00 0.000000e+00
8.800000e-01 0.000000e+00 0.000000e+00
8.900000e-01 0.000000e+00 0.000000e+00
9.000000e-01 0.000000e+00 0.000000e+00
9.100000e-01 0.000000e+00 0.000000e+00
9.200000e-01 0.000000e+00 0.000000e+00
9.300000e-01 0.000000e+00 0.000000e+00
9.400000e-01 0.000000e+00 0.000000e+00
9.500000e-01 0.000000e+00 0.000000e+00
9.600000e-01 0.000000e+00 0.000000e+00
9.700000e-01 0.000000e+00 0.000000e+00
9.800000e-01 0.000000e+00 0.000000e+00
9.900000e-01 0.000000e+00 0.000000e+00
1.000000e+00 0.000000e+00 0.000000e+00
1.010000e+00 0.000000e+00 0.000000e+00
1.020000e+00 0.000000e+00 0.000000e+00
1.030000e+00 0.000000e+00 0.000000e+00
1.040000e+00 0.000000e+00 0.000000e+00
1.050000e+00 0.000000e+00 0.000000e+00
1.060000e+00 0.000000e+00 0.000000e+00
1.070000e+00 0.000000e+00 0.000000e+00
1.080000e+00 0.000000e+00 0.000000e+00
1.090000e+00 0.000000e+00 0.000000e+00
1.100000e+00 0.000000e+00 0.000000e+00
1.110000e+00 0.000000e+00 0.000000e+00
1.120000e+00 0.000000e+00 0.000000e+00
1.130000e+00 0.000000e+00 0.000000e+00
1.140000e+00 0.000000e+00 0.000000e+00
1.150000e+00 0.000000e+00 0.000000e+00
1.160000e+00 0.000000e+00 0.000000e+00
1.170000e+00 0.000000e+00 0.000000e+00
1.180000e+00 0.000000e+00 0.000000e+00
1.190000e+00 0.000000e+00 0.000000e+00
1.200000e+00 0.000000e+00 0.000000e+00
1.210000e+00 0.000000e+00 0.000000e+00
1.220000e+00 0.000000e+00 0.000000e+00
1.230000e+00 0.000000e+00 0.000000e+00
1.240000e+00 0.000000e+00 0.000000e+00
1.250000e+00 0.000000e+00 0.000000e+00
1.260000e+00 0.000000e+00 0.000000e+00
1.270000e+00 0.000000e+00 0.000000e+00
1.280000e+00 0.000000e+00 0.000000e+00
1.290000e+00 0.000000e+00 0.000000e+00
1.300000e+00 0.000000e+00 0.000000e+00
1.310000e+00 0.000000e+00 0.000000e+00
1.320000e+00 0.000000e+00 0.000000e+00
1.330000e+00 0.000000e+00 0.000000e+00
1.340000e+00 0.000000e+00 0.000000e+00
1.350000e+00 0.000000e+00 0.000000e+00
1.360000e+00 0.000000e+00 0.000000e+00
1.370000e+00 0.000000e+00 0.000000e+00
1.380000e+00 0.000000e+00 0.000000e+00
1.390000e+00 0.000000e+00 0.000000e+00
1.400000e+00 0.000000e+00 0.000000e+00
1.410000e+00 0.000000e+00 0.000000e+00
1.420000e+00 0.000000e+00 0.000000e+00
1.430000e+00 0.000000e+00 0.000000e+00
1.440000e+00 0.000000e+00 0.000000e+00
1.450000e+00 0.000000e+00 0.000000e+00
1.460000e+00 0.000000e+00 0.000000e+00
1.470000e+00 0.000000e+00 0.000000e+00
1.480000e+00 0.000000e+00 0.000000e+00
1.490000e+00 0.000000e+00 0.000000e+00
1.500000e+00 0.000000e+00 0.000000e+00
1.510000e+00 0.000000e+00 0.000000e+00
1.520000e+00 0.000000e+00 0.000000e+00
1.530000e+00 0.000000e+00 0.000000e+00
1.540000e+00 0.000000e+00 0.000000e+00
1.550000e+00 0.000000e+00 0.000000e+00
1.560000e+00 0.000000e+00 0.000000e+00
1.570000e+00 0.000000e+00 0.000000e+00
1.580000e+00 0.000000e+00 0.000000e+00
1.590000e+00 0.000000e+00 0.000000e+00
1.600000e+00 0.000000e+00 0.000000e+00
1.610000e+00 0.000000e+00 0.000000e+00
1.620000e+00 0.000000e+00 0.000000e+00
1.630000e+00 0.000000e+00 0.000000e+00
1.640000e+00 0.000000e+00 0.000000e+00
1.650000e+00 0.000000e+00 0.000000e+00
1.660000e+00 0.000000e+00 0.000000e+00
1.670000e+00 0.000000e+00 0.000000e+00
1.680000e+00 0.000000e+00 0.000000e+00
1.690000e+00 0.000000e+00 0.000000e+00
1.700000e+00 0.000000e+00 0.000000e+00
1.710000e+00 0.000000e+00 0.000000e+00
1.720000e+00 0.000000e+00 0.000000e+00
1.730000e+00 0.000000e+00 0.000000e+00
1.740000e+00 0.000000e+00 0.000000e+00
1.750000e+00 0.000000e+00 0.000000e+00
1.760000e+00 0.000000e+00 0.000000e+00
1.770000e+00 0.000000e+00 0.000000e+00
1.780000e+00 0.000000e+00 0.000000e+00
1.790000e+00 0.000000e+00 0.000000e+00
1.800000e+00 0.000000e+00 0.000000e+00
1.810000e+00 0.000000e+00 0.000000e+00
1.820000e+00 0.000000e+00 0.000000e+00
1.830000e+00 0.000000e+00 0.000000e+00
1.840000e+00 0.000000e+00 0.000000e+00
1.850000e+00 0.000000e+00 0.000000e+00
1.860000e+00 0.000000e+00 0.000000e+00
1.870000e+00 0.000000e+00 0.000000e+00
1.880000e+00 0.000000e+00 0.000000e+00
1.890000e+00 0.000000e+00 0.000000e+00
1.900000e+00 0.000000e+00 0.000000e+00
1.910000e+00 0.000000e+00 0.000000e+00
1.920000e+00 0.000000e+00 0.000000e+00
1.930000e+00 0.000000e+00 0.000000e+00
1.940000e+00 0.000000e+00 0.000000e+00
1.950000e+00 0.000000e+00 0.000000e+00
1.960000e+00 0.000000e+00 0.000000e+00
1.970000e+00 0.000000e+00 0.000000e+00
1.980000e+00 0.000000e+00 0.000000e+00
1.990000e+00 0.000000e+00 0.000000e+00
2.000000e+00 0.000000e+00 0.000000e+00
2.010000e+00 0.000000e+00 0.000000e+00
2.020000e+00 0.000000e+00 0.000000e+00
2.030000e+00 0.000000e+00 0.000000e+00
2.040000e+00 0.000000e+00 0.000000e+00
2.050000e+00 0.000000e+00 0.000000e+00
2.060000e+00 0.000000e+00 0.000000e+00
2.070000e+00 0.000000e+00 0.000000e+00
2.080000e+00 0.000000e+00 0.000000e+00
2.090000e+00 0.000000e+00 0.000000e+00
2.100000e+00 0.000000e+00 0.000000e+00
2.110000e+00 0.000000e+00 0.000000e+00
2.120000e+00 0.000000e+00 0.000000e+00
2.130000e+00 0.000000e+00 0.000000e+00
2.140000e+00 0.000000e+00 0.000000e+00
2.150000e+00 0.000000e+00 0.000000e+00
2.160000e+00 0.000000e+00 0.000000e+00
2.170000e+00 0.000000e+00 0.000000e+00
2.180000e+00 0.000000e+00 0.000000e+00
2.190000e+00 0.000000e+00 0.000000e+00
2.200000e+00 0.000000e+00 0.000000e+00
2.210000e+00 0.000000e+00 0.000000e+00
2.220000e+00 0.000000e+00 0.000000e+00
2.230000e+00 0.000000e+00 0.000000e+00
2.240000e+00 0.000000e+00 0.000000e+00
2.250000e+00 0.000000e+00 0.000000e+00
2.260000e+00 0.000000e+00 0.000000e+00
2.270000e+00 0.000000e+00 0.000000e+00
2.280000e+00 0.000000e+00 0.000000e+00
2.290000e+00 0.000000e+00 0.000000e+00
2.300000e+00 0.000000e+00 0.000000e+00
2.310000e+00 0.000000e+00 0.000000e+00
2.320000e+00 0.000000e+00 0.000000e+00
2.330000e+00 0.000000e+00 0.000000e+00
2.340000e+00 0.000000e+00 0.000000e+00
2.350000e+00 0.000000e+00 0.000000e+00
2.360000e+00 0.000000e+00 0.000000e+00
2.370000e+00 0.000000e+00 0.000000e+00
2.380000e+00 0.000000e+00 0.000000e+00
2.390000e+00 0.000000e+00 0.000000e+00
2.400000e+00 0.000000e+00 0.000000e+00
2.410000e+00 0.000000e+00 0.000000e+00
2.420000e+00 0.000000e+00 0.000000e+00
2.430000e+00 0.000000e+00 0.000000e+00
2.440000e+00 0.000000e+00 0.000000e+00
2.450000e+00 0.000000e+00 0.000000e+00
2.460000e+00 0.000000e+00 0.000000e+00
2.470000e+00 0.000000e+00 0.000000e+00
2.480000e+00 0.000000e+00 0.000000e+00
2.490000e+00 0.000000e+00 0.000000e+00
2.500000e+00 0.000000e+00 0.000000e+00
2.510000e+00 0.000000e+00 0.000000e+00
2.520000e+00 0.000000e+00 0.000000e+00
2.530000e+00 0.000000e+00 0.000000e+00
[...]
POINT_DATA 501
SCALARS vm float 1
LOOKUP_TABLE default
-2.333922e+01
-2.333903e+01
-2.333865e+01
-2.333809e+01
-2.333734e+01
-2.333641e+01
-2.333534e+01
-2.333411e+01
-2.333274e+01
-2.333123e+01
-2.332957e+01
-2.332779e+01
-2.332587e+01
-2.332383e+01
-2.332166e+01
-2.331937e+01
-2.331697e+01
-2.331446e+01
-2.331184e+01
-2.330911e+01
-2.330628e+01
-2.330335e+01
-2.330033e+01
-2.329721e+01
-2.329400e+01
-2.329071e+01
-2.328732e+01
-2.328386e+01
-2.328031e+01
-2.327669e+01
-2.327299e+01
-2.326922e+01
-2.326537e+01
-2.326146e+01
-2.325748e+01
-2.325343e+01
-2.324932e+01
-2.324515e+01
-2.324091e+01
-2.323662e+01
-2.323228e+01
-2.322787e+01
-2.322342e+01
-2.321891e+01
-2.321435e+01
-2.320974e+01
-2.320508e+01
-2.320038e+01
-2.319563e+01
-2.319084e+01
-2.318601e+01
-2.318113e+01
-2.317621e+01
-2.317125e+01
-2.316626e+01
-2.316122e+01
-2.315615e+01
-2.315105e+01
-2.314591e+01
-2.314073e+01
-2.313553e+01
-2.313029e+01
-2.312502e+01
-2.311972e+01
-2.311439e+01
-2.310904e+01
-2.310365e+01
-2.309824e+01
-2.309280e+01
-2.308733e+01
-2.308184e+01
-2.307633e+01
-2.307079e+01
-2.306523e+01
-2.305965e+01
-2.305404e+01
-2.304841e+01
-2.304277e+01
-2.303710e+01
-2.303141e+01
-2.302570e+01
-2.301998e+01
-2.301423e+01
-2.300847e+01
-2.300269e+01
-2.299689e+01
-2.299108e+01
-2.298525e+01
-2.297940e+01
-2.297354e+01
-2.296767e+01
-2.296178e+01
-2.295587e+01
-2.294996e+01
-2.294403e+01
-2.293808e+01
-2.293213e+01
-2.292616e+01
-2.292018e+01
-2.291418e+01
-2.290818e+01
-2.290217e+01
-2.289614e+01
-2.289010e+01
-2.288406e+01
-2.287800e+01
-2.287193e+01
-2.286586e+01
-2.285977e+01
-2.285368e+01
-2.284758e+01
-2.284147e+01
-2.283535e+01
-2.282922e+01
-2.282309e+01
-2.281695e+01
-2.281080e+01
-2.280464e+01
-2.279848e+01
-2.279231e+01
-2.278613e+01
-2.277995e+01
-2.277376e+01
-2.276757e+01
-2.276136e+01
-2.275516e+01
-2.274895e+01
-2.274273e+01
-2.273651e+01
-2.273028e+01
-2.272405e+01
-2.271782e+01
-2.271158e+01
-2.270533e+01
-2.269908e+01
-2.269283e+01
-2.268657e+01
-2.268031e+01
-2.267405e+01
-2.266778e+01
-2.266151e+01
-2.265524e+01
-2.264896e+01
-2.264268e+01
-2.263640e+01
-2.263011e+01
-2.262382e+01
-2.261753e+01
-2.261124e+01
-2.260494e+01
-2.259865e+01
-2.259235e+01
-2.258605e+01
-2.257974e+01
-2.257343e+01
-2.256713e+01
-2.256082e+01
-2.255451e+01
-2.254820e+01
-2.254188e+01
-2.253557e+01
-2.252925e+01
-2.252294e+01
-2.251662e+01
-2.251030e+01
-2.250398e+01
-2.249766e+01
-2.249134e+01
-2.248501e+01
-2.247869e+01
-2.247237e+01
-2.246605e+01
-2.245972e+01
-2.245340e+01
-2.244707e+01
-2.244075e+01
-2.243442e+01
-2.242810e+01
-2.242177e+01
-2.241545e+01
-2.240912e+01
-2.240280e+01
-2.239647e+01
-2.239015e+01
-2.238382e+01
-2.237750e+01
-2.237117e+01
-2.236485e+01
-2.235853e+01
-2.235221e+01
-2.234589e+01
-2.233956e+01
-2.233324e+01
-2.232692e+01
-2.232060e+01
-2.231429e+01
-2.230797e+01
-2.230165e+01
-2.229534e+01
-2.228902e+01
-2.228271e+01
-2.227640e+01
-2.227009e+01
-2.226378e+01
-2.225747e+01
-2.225116e+01
-2.224486e+01
-2.223855e+01
-2.223225e+01
-2.222594e+01
-2.221964e+01
-2.221334e+01
-2.220704e+01
-2.220075e+01
-2.219445e+01
-2.218816e+01
-2.218187e+01
-2.217558e+01
-2.216929e+01
-2.216300e+01
-2.215671e+01
-2.215043e+01
-2.214415e+01
-2.213787e+01
-2.213159e+01
-2.212531e+01
-2.211904e+01
-2.211276e+01
-2.210650e+01
-2.210022e+01
-2.209396e+01
-2.208769e+01
-2.208143e+01
-2.207517e+01
-2.206891e+01
-2.206265e+01
-2.205640e+01
-2.205015e+01
-2.204390e+01
-2.203765e+01
-2.203140e+01
-2.202516e+01
-2.201892e+01
-2.201268e+01
-2.200645e+01
-2.200021e+01
-2.199398e+01
-2.198775e+01
-2.198152e+01
-2.197530e+01
-2.196908e+01
-2.196286e+01
-2.195664e+01
-2.195043e+01
-2.194422e+01
-2.193801e+01
-2.193180e+01
-2.192560e+01
-2.191940e+01
-2.191321e+01
-2.190701e+01
-2.190082e+01
-2.189463e+01
-2.188845e+01
-2.188226e+01
-2.187608e+01
-2.186991e+01
-2.186373e+01
-2.185756e+01
-2.185140e+01
-2.184523e+01
-2.183907e+01
-2.183291e+01
-2.182676e+01
-2.182061e+01
-2.181446e+01
-2.180832e+01
-2.180217e+01
-2.179604e+01
-2.178990e+01
-2.178377e+01
-2.177765e+01
-2.177152e+01
-2.176540e+01
-2.175929e+01
-2.175318e+01
-2.174707e+01
-2.174096e+01
-2.173486e+01
-2.172877e+01
-2.172267e+01
-2.171658e+01
-2.171050e+01
-2.170442e+01
-2.169834e+01
-2.169227e+01
-2.168620e+01
-2.168014e+01
-2.167408e+01
-2.166803e+01
-2.166198e+01
-2.165593e+01
-2.164989e+01
-2.164385e+01
-2.163782e+01
-2.163180e+01
-2.162577e+01
-2.161976e+01
-2.161374e+01
-2.160774e+01
-2.160173e+01
-2.159574e+01
-2.158975e+01
-2.158376e+01
-2.157778e+01
-2.157180e+01
-2.156583e+01
-2.155987e+01
-2.155391e+01
-2.154795e+01
-2.154201e+01
-2.153607e+01
-2.153013e+01
-2.152420e+01
-2.151828e+01
-2.151236e+01
-2.150645e+01
-2.150054e+01
-2.149465e+01
-2.148875e+01
-2.148287e+01
-2.147699e+01
-2.147112e+01
-2.146525e+01
-2.145940e+01
-2.145354e+01
-2.144770e+01
-2.144187e+01
-2.143604e+01
-2.143022e+01
-2.142440e+01
-2.141860e+01
-2.141280e+01
-2.140701e+01
-2.140123e+01
-2.139545e+01
-2.138969e+01
-2.138393e+01
-2.137819e+01
-2.137245e+01
-2.136672e+01
-2.136100e+01
-2.135528e+01
-2.134958e+01
-2.134389e+01
-2.133821e+01
-2.133253e+01
-2.132687e+01
-2.132121e+01
-2.131557e+01
-2.130994e+01
-2.130431e+01
-2.129870e+01
-2.129310e+01
-2.128751e+01
-2.128193e+01
-2.127637e+01
-2.127081e+01
-2.126527e+01
-2.125973e+01
-2.125421e+01
-2.124871e+01
-2.124321e+01
-2.123773e+01
-2.123226e+01
-2.122680e+01
-2.122136e+01
-2.121593e+01
-2.121052e+01
-2.120512e+01
-2.119973e+01
-2.119436e+01
-2.118900e+01
-2.118366e+01
-2.117833e+01
-2.117302e+01
-2.116772e+01
-2.116244e+01
-2.115718e+01
-2.115193e+01
-2.114670e+01
-2.114149e+01
-2.113629e+01
-2.113111e+01
-2.112595e+01
-2.112081e+01
-2.111569e+01
-2.111058e+01
-2.110550e+01
-2.110043e+01
-2.109539e+01
-2.109036e+01
-2.108536e+01
-2.108037e+01
-2.107541e+01
-2.107047e+01
-2.106555e+01
-2.106065e+01
-2.105578e+01
-2.105093e+01
-2.104610e+01
-2.104129e+01
-2.103651e+01
-2.103176e+01
-2.102703e+01
-2.102232e+01
-2.101764e+01
-2.101299e+01
-2.100836e+01
-2.100376e+01
-2.099919e+01
-2.099465e+01
-2.099013e+01
-2.098565e+01
-2.098119e+01
-2.097676e+01
-2.097237e+01
-2.096800e+01
-2.096367e+01
-2.095937e+01
-2.095510e+01
-2.095086e+01
-2.094666e+01
-2.094249e+01
-2.093836e+01
-2.093426e+01
-2.093020e+01
-2.092617e+01
-2.092218e+01
-2.091823e+01
-2.091431e+01
-2.091044e+01
-2.090660e+01
-2.090281e+01
-2.089906e+01
-2.089534e+01
-2.089167e+01
-2.088804e+01
-2.088446e+01
-2.088091e+01
-2.087742e+01
-2.087397e+01
-2.087056e+01
-2.086720e+01
-2.086389e+01
-2.086063e+01
-2.085742e+01
-2.085425e+01
-2.085114e+01
-2.084808e+01
-2.084507e+01
-2.084211e+01
-2.083921e+01
-2.083636e+01
-2.083357e+01
-2.083083e+01
-2.082815e+01
-2.082553e+01
-2.082296e+01
-2.082045e+01
-2.081801e+01
-2.081563e+01
-2.081330e+01
-2.081104e+01
-2.080885e+01
-2.080671e+01
-2.080465e+01
-2.080265e+01
-2.080072e+01
-2.079885e+01
-2.079706e+01
-2.079533e+01
-2.079368e+01
-2.079210e+01
-2.079060e+01
-2.078917e+01
-2.078781e+01
-2.078653e+01
-2.078533e+01
-2.078422e+01
-2.078318e+01
-2.078223e+01
-2.078136e+01
-2.078058e+01
-2.077989e+01
-2.077929e+01
-2.077879e+01
-2.077840e+01
-2.077809e+01
-2.077789e+01
-2.077778e+01
