# vtk DataFile Version 3.0
Monodomain MVF
ASCII
DATASET POLYDATA
POINTS 501 float
0.000000e+00 0.000000e+00 0.000000e+00
1.000000e-02 0.000000e+00 0.000000e+00
2.000000e-02 0.000000e+00 0.000000e+00
3.000000e-02 0.000000e+00 0.000000e+00
4.000000e-02 0.000000e+00 0.000000e+00
5.000000e-02 0.000000e+00 0.000000e+00
6.000000e-02 0.000000e+00 0.000000e+00
7.000000e-02 0.000000e+00 0.000000e+00
8.000000e-02 0.000000e+00 0.000000e+00
9.000000e-02 0.000000e+00 0.000000e+00
1.000000e-01 0.000000e+00 0.000000e+00
1.100000e-01 0.000000e+00 0.000000e+00
1.200000e-01 0.000000e+00 0.000000e+00
1.300000e-01 0.000000e+00 0.000000e+00
1.400000e-01 0.000000e+00 0.000000e+00
1.500000e-01 0.000000e+00 0.000000e+00
1.600000e-01 0.000000e+00 0.000000e+00
1.700000e-01 0.000000e+00 0.000000e+00
1.800000e-01 0.000000e+00 0.000000e+00
1.900000e-01 0.000000e+00 0.000000e+00
2.000000e-01 0.000000e+00 0.000000e+00
2.100000e-01 0.000000e+00 0.000000e+00
2.200000e-01 0.000000e+00 0.000000e+00
2.300000e-01 0.000000e+00 0.000000e+00
2.400000e-01 0.000000e+00 0.000000e+00
2.500000e-01 0.000000e+00 0.000000e+00
2.600000e-01 0.000000e+00 0.000000e+00
2.700000e-01 0.000000e+00 0.000000e+00
2.800000e-01 0.000000e+00 0.000000e+00
2.900000e-01 0.000000e+00 0.000000e+00
3.000000e-01 0.000000e+00 0.000000e+00
3.100000e-01 0.000000e+00 0.000000e+00
3.200000e-01 0.000000e+00 0.000000e+00
3.300000e-01 0.000000e+00 0.000000e+00
3.400000e-01 0.000000e+00 0.000000e+00
3.500000e-01 0.000000e+00 0.000000e+00
3.600000e-01 0.000000e+00 0.000000e+00
3.700000e-01 0.000000e+00 0.000000e+00
3.800000e-01 0.000000e+00 0.000000e+00
3.900000e-01 0.000000e+00 0.000000e+00
4.000000e-01 0.000000e+00 0.000000e+00
4.100000e-01 0.000000e+00 0.000000e+00
4.200000e-01 0.000000e+00 0.000000e+00
4.300000e-01 0.000000e+00 0.000000e+00
4.400000e-01 0.000000e+00 0.000000e+00
4.500000e-01 0.000000e+00 0.000000e+00
4.600000e-01 0.000000e+00 0.000000e+00
4.700000e-01 0.000000e+00 0.000000e+00
4.800000e-01 0.000000e+00 0.000000e+00
4.900000e-01 0.000000e+00 0.000000e+00
5.000000e-01 0.000000e+00 0.000000e+00
5.100000e-01 0.000000e+00 0.000000e+00
5.200000e-01 0.000000e+00 0.000000e+00
5.300000e-01 0.000000e+00 0.000000e+00
5.400000e-01 0.000000e+00 0.000000e+00
5.500000e-01 0.000000e+00 0.000000e+00
5.600000e-01 0.000000e+00 0.000000e+00
5.700000e-01 0.000000e+00 0.000000e+00
5.800000e-01 0.000000e+00 0.000000e+00
5.900000e-01 0.000000e+00 0.000000e+00
6.000000e-01 0.000000e+00 0.000000e+00
6.100000e-01 0.000000e+00 0.000000e+00
6.200000e-01 0.000000e+00 0.000000e+00
6.300000e-01 0.000000e+00 0.000000e+00
6.400000e-01 0.000000e+00 0.000000e+00
6.500000e-01 0.000000e+00 0.000000e+00
6.600000e-01 0.000000e+00 0.000000e+00
6.700000e-01 0.000000e+00 0.000000e+00
6.800000e-01 0.000000e+00 0.000000e+00
6.900000e-01 0.000000e+00 0.000000e+00
7.000000e-01 0.000000e+00 0.000000e+00
7.100000e-01 0.000000e+00 0.000000e+00
7.200000e-01 0.000000e+00 0.000000e+00
7.300000e-01 0.000000e+00 0.000000e+00
7.400000e-01 0.000000e+00 0.000000e+00
7.500000e-01 0.000000e+00 0.000000e+00
7.600000e-01 0.000000e+00 0.000000e+00
7.700000e-01 0.000000e+00 0.000000e+00
7.800000e-01 0.000000e+00 0.000000e+00
7.900000e-01 0.000000e+00 0.000000e+00
8.000000e-01 0.000000e+00 0.000000e+00
8.100000e-01 0.000000e+00 0.000000e+00
8.200000e-01 0.000000e+00 0.000000e+00
8.300000e-01 0.000000e+00 0.000000e+00
8.400000e-01 0.000000e+00 0.000000e+00
8.500000e-01 0.000000e+00 0.000000e+00
8.600000e-01 0.000000e+00 0.000000e+00
8.700000e-01 0.000000e+00 0.000000e+00
8.800000e-01 0.000000e+00 0.000000e+00
8.900000e-01 0.000000e+00 0.000000e+00
9.000000e-01 0.000000e+00 0.000000e+00
9.100000e-01 0.000000e+00 0.000000e+00
9.200000e-01 0.000000e+00 0.000000e+00
9.300000e-01 0.000000e+00 0.000000e+00
9.400000e-01 0.000000e+00 0.000000e+00
9.500000e-01 0.000000e+00 0.000000e+00
9.600000e-01 0.000000e+00 0.000000e+00
9.700000e-01 0.000000e+00 0.000000e+00
9.800000e-01 0.000000e+00 0.000000e+00
9.900000e-01 0.000000e+00 0.000000e+00
1.000000e+00 0.000000e+00 0.000000e+00
1.010000e+00 0.000000e+00 0.000000e+00
1.020000e+00 0.000000e+00 0.000000e+00
1.030000e+00 0.000000e+00 0.000000e+00
1.040000e+00 0.000000e+00 0.000000e+00
1.050000e+00 0.000000e+00 0.000000e+00
1.060000e+00 0.000000e+00 0.000000e+00
1.070000e+00 0.000000e+00 0.000000e+00
1.080000e+00 0.000000e+00 0.000000e+00
1.090000e+00 0.000000e+00 0.000000e+00
1.100000e+00 0.000000e+00 0.000000e+00
1.110000e+00 0.000000e+00 0.000000e+00
1.120000e+00 0.000000e+00 0.000000e+00
1.130000e+00 0.000000e+00 0.000000e+00
1.140000e+00 0.000000e+00 0.000000e+00
1.150000e+00 0.000000e+00 0.000000e+00
1.160000e+00 0.000000e+00 0.000000e+00
1.170000e+00 0.000000e+00 0.000000e+00
1.180000e+00 0.000000e+00 0.000000e+00
1.190000e+00 0.000000e+00 0.000000e+00
1.200000e+00 0.000000e+00 0.000000e+00
1.210000e+00 0.000000e+00 0.000000e+00
1.220000e+00 0.000000e+00 0.000000e+00
1.230000e+00 0.000000e+00 0.000000e+00
1.240000e+00 0.000000e+00 0.000000e+00
1.250000e+00 0.000000e+00 0.000000e+00
1.260000e+00 0.000000e+00 0.000000e+00
1.270000e+00 0.000000e+00 0.000000e+00
1.280000e+00 0.000000e+00 0.000000e+00
1.290000e+00 0.000000e+00 0.000000e+00
1.300000e+00 0.000000e+00 0.000000e+00
1.310000e+00 0.000000e+00 0.000000e+00
1.320000e+00 0.000000e+00 0.000000e+00
1.330000e+00 0.000000e+00 0.000000e+00
1.340000e+00 0.000000e+00 0.000000e+00
1.350000e+00 0.000000e+00 0.000000e+00
1.360000e+00 0.000000e+00 0.000000e+00
1.370000e+00 0.000000e+00 0.000000e+00
1.380000e+00 0.000000e+00 0.000000e+00
1.390000e+00 0.000000e+00 0.000000e+00
1.400000e+00 0.000000e+00 0.000000e+00
1.410000e+00 0.000000e+00 0.000000e+00
1.420000e+00 0.000000e+00 0.000000e+00
1.430000e+00 0.000000e+00 0.000000e+00
1.440000e+00 0.000000e+00 0.000000e+00
1.450000e+00 0.000000e+00 0.000000e+00
1.460000e+00 0.000000e+00 0.000000e+00
1.470000e+00 0.000000e+00 0.000000e+00
1.480000e+00 0.000000e+00 0.000000e+00
1.490000e+00 0.000000e+00 0.000000e+00
1.500000e+00 0.000000e+00 0.000000e+00
1.510000e+00 0.000000e+00 0.000000e+00
1.520000e+00 0.000000e+00 0.000000e+00
1.530000e+00 0.000000e+00 0.000000e+00
1.540000e+00 0.000000e+00 0.000000e+00
1.550000e+00 0.000000e+00 0.000000e+00
1.560000e+00 0.000000e+00 0.000000e+00
1.570000e+00 0.000000e+00 0.000000e+00
1.580000e+00 0.000000e+00 0.000000e+00
1.590000e+00 0.000000e+00 0.000000e+00
1.600000e+00 0.000000e+00 0.000000e+00
1.610000e+00 0.000000e+00 0.000000e+00
1.620000e+00 0.000000e+00 0.000000e+00
1.630000e+00 0.000000e+00 0.000000e+00
1.640000e+00 0.000000e+00 0.000000e+00
1.650000e+00 0.000000e+00 0.000000e+00
1.660000e+00 0.000000e+00 0.000000e+00
1.670000e+00 0.000000e+00 0.000000e+00
1.680000e+00 0.000000e+00 0.000000e+00
1.690000e+00 0.000000e+00 0.000000e+00
1.700000e+00 0.000000e+00 0.000000e+00
1.710000e+00 0.000000e+00 0.000000e+00
1.720000e+00 0.000000e+00 0.000000e+00
1.730000e+00 0.000000e+00 0.000000e+00
1.740000e+00 0.000000e+00 0.000000e+00
1.750000e+00 0.000000e+00 0.000000e+00
1.760000e+00 0.000000e+00 0.000000e+00
1.770000e+00 0.000000e+00 0.000000e+00
1.780000e+00 0.000000e+00 0.000000e+00
1.790000e+00 0.000000e+00 0.000000e+00
1.800000e+00 0.000000e+00 0.000000e+00
1.810000e+00 0.000000e+00 0.000000e+00
1.820000e+00 0.000000e+00 0.000000e+00
1.830000e+00 0.000000e+00 0.000000e+00
1.840000e+00 0.000000e+00 0.000000e+00
1.850000e+00 0.000000e+00 0.000000e+00
1.860000e+00 0.000000e+00 0.000000e+00
1.870000e+00 0.000000e+00 0.000000e+00
1.880000e+00 0.000000e+00 0.000000e+00
1.890000e+00 0.000000e+00 0.000000e+00
1.900000e+00 0.000000e+00 0.000000e+00
1.910000e+00 0.000000e+00 0.000000e+00
1.920000e+00 0.000000e+00 0.000000e+00
1.930000e+00 0.000000e+00 0.000000e+00
1.940000e+00 0.000000e+00 0.000000e+00
1.950000e+00 0.000000e+00 0.000000e+00
1.960000e+00 0.000000e+00 0.000000e+00
1.970000e+00 0.000000e+00 0.000000e+00
1.980000e+00 0.000000e+00 0.000000e+00
1.990000e+00 0.000000e+00 0.000000e+00
2.000000e+00 0.000000e+00 0.000000e+00
2.010000e+00 0.000000e+00 0.000000e+00
2.020000e+00 0.000000e+00 0.000000e+00
2.030000e+00 0.000000e+00 0.000000e+00
2.040000e+00 0.000000e+00 0.000000e+00
2.050000e+00 0.000000e+00 0.000000e+00
2.060000e+00 0.000000e+00 0.000000e+00
2.070000e+00 0.000000e+00 0.000000e+00
2.080000e+00 0.000000e+00 0.000000e+00
2.090000e+00 0.000000e+00 0.000000e+00
2.100000e+00 0.000000e+00 0.000000e+00
2.110000e+00 0.000000e+00 0.000000e+00
2.120000e+00 0.000000e+00 0.000000e+00
2.130000e+00 0.000000e+00 0.000000e+00
2.140000e+00 0.000000e+00 0.000000e+00
2.150000e+00 0.000000e+00 0.000000e+00
2.160000e+00 0.000000e+00 0.000000e+00
2.170000e+00 0.000000e+00 0.000000e+00
2.180000e+00 0.000000e+00 0.000000e+00
2.190000e+00 0.000000e+00 0.000000e+00
2.200000e+00 0.000000e+00 0.000000e+00
2.210000e+00 0.000000e+00 0.000000e+00
2.220000e+00 0.000000e+00 0.000000e+00
2.230000e+00 0.000000e+00 0.000000e+00
2.240000e+00 0.000000e+00 0.000000e+00
2.250000e+00 0.000000e+00 0.000000e+00
2.260000e+00 0.000000e+00 0.000000e+00
2.270000e+00 0.000000e+00 0.000000e+00
2.280000e+00 0.000000e+00 0.000000e+00
2.290000e+00 0.000000e+00 0.000000e+00
2.300000e+00 0.000000e+00 0.000000e+00
2.310000e+00 0.000000e+00 0.000000e+00
2.320000e+00 0.000000e+00 0.000000e+00
2.330000e+00 0.000000e+00 0.000000e+00
2.340000e+00 0.000000e+00 0.000000e+00
2.350000e+00 0.000000e+00 0.000000e+00
2.360000e+00 0.000000e+00 0.000000e+00
2.370000e+00 0.000000e+00 0.000000e+00
2.380000e+00 0.000000e+00 0.000000e+00
2.390000e+00 0.000000e+00 0.000000e+00
2.400000e+00 0.000000e+00 0.000000e+00
2.410000e+00 0.000000e+00 0.000000e+00
2.420000e+00 0.000000e+00 0.000000e+00
2.430000e+00 0.000000e+00 0.000000e+00
2.440000e+00 0.000000e+00 0.000000e+00
2.450000e+00 0.000000e+00 0.000000e+00
2.460000e+00 0.000000e+00 0.000000e+00
2.470000e+00 0.000000e+00 0.000000e+00
2.480000e+00 0.000000e+00 0.000000e+00
2.490000e+00 0.000000e+00 0.000000e+00
2.500000e+00 0.000000e+00 0.000000e+00
2.510000e+00 0.000000e+00 0.000000e+00
2.520000e+00 0.000000e+00 0.000000e+00
2.530000e+00 0.000000e+00 0.000000e+00
[...]
POINT_DATA 501
SCALARS vm float 1
LOOKUP_TABLE default
3.569547e+00
3.569868e+00
3.570506e+00
3.571454e+00
3.572700e+00
3.574261e+00
3.576038e+00
3.578024e+00
3.580222e+00
3.582625e+00
3.585212e+00
3.587982e+00
3.590927e+00
3.594034e+00
3.597301e+00
3.600721e+00
3.604280e+00
3.607981e+00
3.611814e+00
3.615769e+00
3.619847e+00
3.624042e+00
3.628339e+00
3.632747e+00
3.637255e+00
3.641851e+00
3.646544e+00
3.651323e+00
3.656179e+00
3.661118e+00
3.666132e+00
3.671213e+00
3.676366e+00
3.681579e+00
3.686856e+00
3.692195e+00
3.697581e+00
3.703027e+00
3.708524e+00
3.714063e+00
3.719652e+00
3.725284e+00
3.730953e+00
3.736666e+00
3.742410e+00
3.748194e+00
3.754013e+00
3.759856e+00
3.765736e+00
3.771644e+00
3.777573e+00
3.783533e+00
3.789515e+00
3.795519e+00
3.801549e+00
3.807591e+00
3.813659e+00
3.819746e+00
3.825844e+00
3.831963e+00
3.838098e+00
3.844242e+00
3.850405e+00
3.856575e+00
3.862761e+00
3.868960e+00
3.875162e+00
3.881381e+00
3.887610e+00
3.893841e+00
3.900085e+00
3.906334e+00
3.912591e+00
3.918857e+00
3.925122e+00
3.931399e+00
3.937683e+00
3.943964e+00
3.950255e+00
3.956551e+00
3.962845e+00
3.969149e+00
3.975448e+00
3.981757e+00
3.988069e+00
3.994376e+00
4.000692e+00
4.007010e+00
4.013324e+00
4.019645e+00
4.025962e+00
4.032284e+00
4.038609e+00
4.044926e+00
4.051252e+00
4.057578e+00
4.063898e+00
4.070225e+00
4.076548e+00
4.082872e+00
4.089199e+00
4.095518e+00
4.101844e+00
4.108170e+00
4.114489e+00
4.120813e+00
4.127137e+00
4.133454e+00
4.139777e+00
4.146093e+00
4.152413e+00
4.158734e+00
4.165047e+00
4.171365e+00
4.177683e+00
4.183994e+00
4.190309e+00
4.196619e+00
4.202931e+00
4.209244e+00
4.215548e+00
4.221858e+00
4.228168e+00
4.234470e+00
4.240777e+00
4.247080e+00
4.253382e+00
4.259686e+00
4.265982e+00
4.272283e+00
4.278584e+00
4.284877e+00
4.291175e+00
4.297472e+00
4.303763e+00
4.310058e+00
4.316346e+00
4.322638e+00
4.328931e+00
4.335214e+00
4.341504e+00
4.347793e+00
4.354075e+00
4.360362e+00
4.366643e+00
4.372927e+00
4.379211e+00
4.385487e+00
4.391769e+00
4.398051e+00
4.404326e+00
4.410605e+00
4.416881e+00
4.423156e+00
4.429433e+00
4.435703e+00
4.441978e+00
4.448254e+00
4.454521e+00
4.460794e+00
4.467067e+00
4.473333e+00
4.479604e+00
4.485869e+00
4.492138e+00
4.498408e+00
4.504670e+00
4.510938e+00
4.517206e+00
4.523467e+00
4.529733e+00
4.535995e+00
4.542258e+00
4.548523e+00
4.554780e+00
4.561044e+00
4.567308e+00
4.573565e+00
4.579827e+00
4.586086e+00
4.592345e+00
4.598606e+00
4.604860e+00
4.611120e+00
4.617381e+00
4.623634e+00
4.629893e+00
4.636152e+00
4.642406e+00
4.648664e+00
4.654917e+00
4.661174e+00
4.667432e+00
4.673682e+00
4.679939e+00
4.686197e+00
4.692448e+00
4.698704e+00
4.704956e+00
4.711210e+00
4.717467e+00
4.723716e+00
4.729971e+00
4.736228e+00
4.742477e+00
4.748732e+00
4.754985e+00
4.761237e+00
4.767492e+00
4.773741e+00
4.779995e+00
4.786250e+00
4.792499e+00
4.798753e+00
4.805008e+00
4.811257e+00
4.817511e+00
4.823761e+00
4.830014e+00
4.836269e+00
4.842517e+00
4.848771e+00
4.855027e+00
4.861275e+00
4.867530e+00
4.873781e+00
4.880033e+00
4.886288e+00
4.892537e+00
4.898792e+00
4.905047e+00
4.911296e+00
4.917551e+00
4.923804e+00
4.930056e+00
4.936311e+00
4.942561e+00
4.948816e+00
4.955073e+00
4.961322e+00
4.967578e+00
4.973834e+00
4.980085e+00
4.986341e+00
4.992592e+00
4.998848e+00
5.005105e+00
5.011355e+00
5.017612e+00
5.023870e+00
5.030121e+00
5.036378e+00
5.042632e+00
5.048888e+00
5.055146e+00
5.061398e+00
5.067656e+00
5.073915e+00
5.080167e+00
5.086426e+00
5.092684e+00
5.098939e+00
5.105198e+00
5.111452e+00
5.117711e+00
5.123971e+00
5.130224e+00
5.136484e+00
5.142745e+00
5.149000e+00
5.155260e+00
5.161516e+00
5.167776e+00
5.174037e+00
5.180291e+00
5.186553e+00
5.192815e+00
5.199071e+00
5.205332e+00
5.211591e+00
5.217851e+00
5.224113e+00
5.230369e+00
5.236631e+00
5.242894e+00
5.249151e+00
5.255413e+00
5.261675e+00
5.267934e+00
5.274196e+00
5.280454e+00
5.286716e+00
5.292980e+00
5.299237e+00
5.305500e+00
5.311764e+00
5.318022e+00
5.324285e+00
5.330544e+00
5.336806e+00
5.343070e+00
5.349327e+00
5.355590e+00
5.361854e+00
5.368111e+00
5.374374e+00
5.380634e+00
5.386895e+00
5.393158e+00
5.399415e+00
5.405677e+00
5.411941e+00
5.418197e+00
5.424459e+00
5.430721e+00
5.436978e+00
5.443239e+00
5.449495e+00
5.455755e+00
5.462016e+00
5.468270e+00
5.474530e+00
5.480791e+00
5.487044e+00
5.493303e+00
5.499558e+00
5.505814e+00
5.512072e+00
5.518322e+00
5.524579e+00
5.530835e+00
5.537085e+00
5.543339e+00
5.549590e+00
5.555841e+00
5.562094e+00
5.568340e+00
5.574590e+00
5.580841e+00
5.587084e+00
5.593332e+00
5.599579e+00
5.605821e+00
5.612065e+00
5.618304e+00
5.624547e+00
5.630789e+00
5.637023e+00
5.643261e+00
5.649500e+00
5.655731e+00
5.661964e+00
5.668194e+00
5.674424e+00
5.680654e+00
5.686876e+00
5.693102e+00
5.699327e+00
5.705543e+00
5.711763e+00
5.717979e+00
5.724192e+00
5.730406e+00
5.736611e+00
5.742820e+00
5.749026e+00
5.755224e+00
5.761424e+00
5.767622e+00
5.773812e+00
5.780003e+00
5.786187e+00
5.792371e+00
5.798553e+00
5.804725e+00
5.810899e+00
5.817071e+00
5.823232e+00
5.829393e+00
5.835549e+00
5.841701e+00
5.847850e+00
5.853989e+00
5.860128e+00
5.866264e+00
5.872388e+00
5.878511e+00
5.884628e+00
5.890738e+00
5.896844e+00
5.902940e+00
5.909034e+00
5.915122e+00
5.921197e+00
5.927270e+00
5.933338e+00
5.939392e+00
5.945442e+00
5.951482e+00
5.957516e+00
5.963543e+00
5.969554e+00
5.975563e+00
5.981563e+00
5.987547e+00
5.993526e+00
5.999492e+00
6.005449e+00
6.011396e+00
6.017327e+00
6.023251e+00
6.029164e+00
6.035058e+00
6.040944e+00
6.046816e+00
6.052674e+00
6.058519e+00
6.064345e+00
6.070161e+00
6.075961e+00
6.081740e+00
6.087507e+00
6.093259e+00
6.098987e+00
6.104702e+00
6.110395e+00
6.116071e+00
6.121728e+00
6.127359e+00
6.132975e+00
6.138570e+00
6.144136e+00
6.149684e+00
6.155206e+00
6.160704e+00
6.166179e+00
6.171623e+00
6.177044e+00
6.182439e+00
6.187799e+00
6.193135e+00
6.198440e+00
6.203713e+00
6.208955e+00
6.214161e+00
6.219336e+00
6.224478e+00
6.229577e+00
6.234645e+00
6.239675e+00
6.244661e+00
6.249609e+00
6.254514e+00
6.259378e+00
6.264199e+00
6.268969e+00
6.273698e+00
6.278379e+00
6.283005e+00
6.287584e+00
6.292109e+00
6.296581e+00
6.300997e+00
6.305353e+00
6.309654e+00
6.313895e+00
6.318068e+00
6.322182e+00
6.326229e+00
6.330206e+00
6.334115e+00
6.337948e+00
6.341711e+00
6.345397e+00
6.348999e+00
6.352526e+00
6.355969e+00
6.359320e+00
6.362586e+00
6.365758e+00
6.368838e+00
6.371819e+00
6.374694e+00
6.377469e+00
6.380137e+00
6.382685e+00
6.385122e+00
6.387438e+00
6.389624e+00
6.391681e+00
6.393602e+00
6.395380e+00
6.397006e+00
6.398487e+00
6.399802e+00
6.400940e+00
6.401888e+00
6.402666e+00
6.403265e+00
6.403674e+00
6.403880e+00
