# vtk DataFile Version 3.0
Monodomain MVF
ASCII
DATASET POLYDATA
POINTS 501 float
0.000000e+00 0.000000e+00 0.000000e+00
1.000000e-02 0.000000e+00 0.000000e+00
2.000000e-02 0.000000e+00 0.000000e+00
3.000000e-02 0.000000e+00 0.000000e+00
4.000000e-02 0.000000e+00 0.000000e+00
5.000000e-02 0.000000e+00 0.000000e+00
6.000000e-02 0.000000e+00 0.000000e+00
7.000000e-02 0.000000e+00 0.000000e+00
8.000000e-02 0.000000e+00 0.000000e+00
9.000000e-02 0.000000e+00 0.000000e+00
1.000000e-01 0.000000e+00 0.000000e+00
1.100000e-01 0.000000e+00 0.000000e+00
1.200000e-01 0.000000e+00 0.000000e+00
1.300000e-01 0.000000e+00 0.000000e+00
1.400000e-01 0.000000e+00 0.000000e+00
1.500000e-01 0.000000e+00 0.000000e+00
1.600000e-01 0.000000e+00 0.000000e+00
1.700000e-01 0.000000e+00 0.000000e+00
1.800000e-01 0.000000e+00 0.000000e+00
1.900000e-01 0.000000e+00 0.000000e+00
2.000000e-01 0.000000e+00 0.000000e+00
2.100000e-01 0.000000e+00 0.000000e+00
2.200000e-01 0.000000e+00 0.000000e+00
2.300000e-01 0.000000e+00 0.000000e+00
2.400000e-01 0.000000e+00 0.000000e+00
2.500000e-01 0.000000e+00 0.000000e+00
2.600000e-01 0.000000e+00 0.000000e+00
2.700000e-01 0.000000e+00 0.000000e+00
2.800000e-01 0.000000e+00 0.000000e+00
2.900000e-01 0.000000e+00 0.000000e+00
3.000000e-01 0.000000e+00 0.000000e+00
3.100000e-01 0.000000e+00 0.000000e+00
3.200000e-01 0.000000e+00 0.000000e+00
3.300000e-01 0.000000e+00 0.000000e+00
3.400000e-01 0.000000e+00 0.000000e+00
3.500000e-01 0.000000e+00 0.000000e+00
3.600000e-01 0.000000e+00 0.000000e+00
3.700000e-01 0.000000e+00 0.000000e+00
3.800000e-01 0.000000e+00 0.000000e+00
3.900000e-01 0.000000e+00 0.000000e+00
4.000000e-01 0.000000e+00 0.000000e+00
4.100000e-01 0.000000e+00 0.000000e+00
4.200000e-01 0.000000e+00 0.000000e+00
4.300000e-01 0.000000e+00 0.000000e+00
4.400000e-01 0.000000e+00 0.000000e+00
4.500000e-01 0.000000e+00 0.000000e+00
4.600000e-01 0.000000e+00 0.000000e+00
4.700000e-01 0.000000e+00 0.000000e+00
4.800000e-01 0.000000e+00 0.000000e+00
4.900000e-01 0.000000e+00 0.000000e+00
5.000000e-01 0.000000e+00 0.000000e+00
5.100000e-01 0.000000e+00 0.000000e+00
5.200000e-01 0.000000e+00 0.000000e+00
5.300000e-01 0.000000e+00 0.000000e+00
5.400000e-01 0.000000e+00 0.000000e+00
5.500000e-01 0.000000e+00 0.000000e+00
5.600000e-01 0.000000e+00 0.000000e+00
5.700000e-01 0.000000e+00 0.000000e+00
5.800000e-01 0.000000e+00 0.000000e+00
5.900000e-01 0.000000e+00 0.000000e+00
6.000000e-01 0.000000e+00 0.000000e+00
6.100000e-01 0.000000e+00 0.000000e+00
6.200000e-01 0.000000e+00 0.000000e+00
6.300000e-01 0.000000e+00 0.000000e+00
6.400000e-01 0.000000e+00 0.000000e+00
6.500000e-01 0.000000e+00 0.000000e+00
6.600000e-01 0.000000e+00 0.000000e+00
6.700000e-01 0.000000e+00 0.000000e+00
6.800000e-01 0.000000e+00 0.000000e+00
6.900000e-01 0.000000e+00 0.000000e+00
7.000000e-01 0.000000e+00 0.000000e+00
7.100000e-01 0.000000e+00 0.000000e+00
7.200000e-01 0.000000e+00 0.000000e+00
7.300000e-01 0.000000e+00 0.000000e+00
7.400000e-01 0.000000e+00 0.000000e+00
7.500000e-01 0.000000e+00 0.000000e+00
7.600000e-01 0.000000e+00 0.000000e+00
7.700000e-01 0.000000e+00 0.000000e+00
7.800000e-01 0.000000e+00 0.000000e+00
7.900000e-01 0.000000e+00 0.000000e+00
8.000000e-01 0.000000e+00 0.000000e+00
8.100000e-01 0.000000e+00 0.000000e+00
8.200000e-01 0.000000e+00 0.000000e+00
8.300000e-01 0.000000e+00 0.000000e+00
8.400000e-01 0.000000e+00 0.000000e+00
8.500000e-01 0.000000e+00 0.000000e+00
8.600000e-01 0.000000e+00 0.000000e+00
8.700000e-01 0.000000e+00 0.000000e+00
8.800000e-01 0.000000e+00 0.000000e+00
8.900000e-01 0.000000e+00 0.000000e+00
9.000000e-01 0.000000e+00 0.000000e+00
9.100000e-01 0.000000e+00 0.000000e+00
9.200000e-01 0.000000e+00 0.000000e+00
9.300000e-01 0.000000e+00 0.000000e+00
9.400000e-01 0.000000e+00 0.000000e+00
9.500000e-01 0.000000e+00 0.000000e+00
9.600000e-01 0.000000e+00 0.000000e+00
9.700000e-01 0.000000e+00 0.000000e+00
9.800000e-01 0.000000e+00 0.000000e+00
9.900000e-01 0.000000e+00 0.000000e+00
1.000000e+00 0.000000e+00 0.000000e+00
1.010000e+00 0.000000e+00 0.000000e+00
1.020000e+00 0.000000e+00 0.000000e+00
1.030000e+00 0.000000e+00 0.000000e+00
1.040000e+00 0.000000e+00 0.000000e+00
1.050000e+00 0.000000e+00 0.000000e+00
1.060000e+00 0.000000e+00 0.000000e+00
1.070000e+00 0.000000e+00 0.000000e+00
1.080000e+00 0.000000e+00 0.000000e+00
1.090000e+00 0.000000e+00 0.000000e+00
1.100000e+00 0.000000e+00 0.000000e+00
1.110000e+00 0.000000e+00 0.000000e+00
1.120000e+00 0.000000e+00 0.000000e+00
1.130000e+00 0.000000e+00 0.000000e+00
1.140000e+00 0.000000e+00 0.000000e+00
1.150000e+00 0.000000e+00 0.000000e+00
1.160000e+00 0.000000e+00 0.000000e+00
1.170000e+00 0.000000e+00 0.000000e+00
1.180000e+00 0.000000e+00 0.000000e+00
1.190000e+00 0.000000e+00 0.000000e+00
1.200000e+00 0.000000e+00 0.000000e+00
1.210000e+00 0.000000e+00 0.000000e+00
1.220000e+00 0.000000e+00 0.000000e+00
1.230000e+00 0.000000e+00 0.000000e+00
1.240000e+00 0.000000e+00 0.000000e+00
1.250000e+00 0.000000e+00 0.000000e+00
1.260000e+00 0.000000e+00 0.000000e+00
1.270000e+00 0.000000e+00 0.000000e+00
1.280000e+00 0.000000e+00 0.000000e+00
1.290000e+00 0.000000e+00 0.000000e+00
1.300000e+00 0.000000e+00 0.000000e+00
1.310000e+00 0.000000e+00 0.000000e+00
1.320000e+00 0.000000e+00 0.000000e+00
1.330000e+00 0.000000e+00 0.000000e+00
1.340000e+00 0.000000e+00 0.000000e+00
1.350000e+00 0.000000e+00 0.000000e+00
1.360000e+00 0.000000e+00 0.000000e+00
1.370000e+00 0.000000e+00 0.000000e+00
1.380000e+00 0.000000e+00 0.000000e+00
1.390000e+00 0.000000e+00 0.000000e+00
1.400000e+00 0.000000e+00 0.000000e+00
1.410000e+00 0.000000e+00 0.000000e+00
1.420000e+00 0.000000e+00 0.000000e+00
1.430000e+00 0.000000e+00 0.000000e+00
1.440000e+00 0.000000e+00 0.000000e+00
1.450000e+00 0.000000e+00 0.000000e+00
1.460000e+00 0.000000e+00 0.000000e+00
1.470000e+00 0.000000e+00 0.000000e+00
1.480000e+00 0.000000e+00 0.000000e+00
1.490000e+00 0.000000e+00 0.000000e+00
1.500000e+00 0.000000e+00 0.000000e+00
1.510000e+00 0.000000e+00 0.000000e+00
1.520000e+00 0.000000e+00 0.000000e+00
1.530000e+00 0.000000e+00 0.000000e+00
1.540000e+00 0.000000e+00 0.000000e+00
1.550000e+00 0.000000e+00 0.000000e+00
1.560000e+00 0.000000e+00 0.000000e+00
1.570000e+00 0.000000e+00 0.000000e+00
1.580000e+00 0.000000e+00 0.000000e+00
1.590000e+00 0.000000e+00 0.000000e+00
1.600000e+00 0.000000e+00 0.000000e+00
1.610000e+00 0.000000e+00 0.000000e+00
1.620000e+00 0.000000e+00 0.000000e+00
1.630000e+00 0.000000e+00 0.000000e+00
1.640000e+00 0.000000e+00 0.000000e+00
1.650000e+00 0.000000e+00 0.000000e+00
1.660000e+00 0.000000e+00 0.000000e+00
1.670000e+00 0.000000e+00 0.000000e+00
1.680000e+00 0.000000e+00 0.000000e+00
1.690000e+00 0.000000e+00 0.000000e+00
1.700000e+00 0.000000e+00 0.000000e+00
1.710000e+00 0.000000e+00 0.000000e+00
1.720000e+00 0.000000e+00 0.000000e+00
1.730000e+00 0.000000e+00 0.000000e+00
1.740000e+00 0.000000e+00 0.000000e+00
1.750000e+00 0.000000e+00 0.000000e+00
1.760000e+00 0.000000e+00 0.000000e+00
1.770000e+00 0.000000e+00 0.000000e+00
1.780000e+00 0.000000e+00 0.000000e+00
1.790000e+00 0.000000e+00 0.000000e+00
1.800000e+00 0.000000e+00 0.000000e+00
1.810000e+00 0.000000e+00 0.000000e+00
1.820000e+00 0.000000e+00 0.000000e+00
1.830000e+00 0.000000e+00 0.000000e+00
1.840000e+00 0.000000e+00 0.000000e+00
1.850000e+00 0.000000e+00 0.000000e+00
1.860000e+00 0.000000e+00 0.000000e+00
1.870000e+00 0.000000e+00 0.000000e+00
1.880000e+00 0.000000e+00 0.000000e+00
1.890000e+00 0.000000e+00 0.000000e+00
1.900000e+00 0.000000e+00 0.000000e+00
1.910000e+00 0.000000e+00 0.000000e+00
1.920000e+00 0.000000e+00 0.000000e+00
1.930000e+00 0.000000e+00 0.000000e+00
1.940000e+00 0.000000e+00 0.000000e+00
1.950000e+00 0.000000e+00 0.000000e+00
1.960000e+00 0.000000e+00 0.000000e+00
1.970000e+00 0.000000e+00 0.000000e+00
1.980000e+00 0.000000e+00 0.000000e+00
1.990000e+00 0.000000e+00 0.000000e+00
2.000000e+00 0.000000e+00 0.000000e+00
2.010000e+00 0.000000e+00 0.000000e+00
2.020000e+00 0.000000e+00 0.000000e+00
2.030000e+00 0.000000e+00 0.000000e+00
2.040000e+00 0.000000e+00 0.000000e+00
2.050000e+00 0.000000e+00 0.000000e+00
2.060000e+00 0.000000e+00 0.000000e+00
2.070000e+00 0.000000e+00 0.000000e+00
2.080000e+00 0.000000e+00 0.000000e+00
2.090000e+00 0.000000e+00 0.000000e+00
2.100000e+00 0.000000e+00 0.000000e+00
2.110000e+00 0.000000e+00 0.000000e+00
2.120000e+00 0.000000e+00 0.000000e+00
2.130000e+00 0.000000e+00 0.000000e+00
2.140000e+00 0.000000e+00 0.000000e+00
2.150000e+00 0.000000e+00 0.000000e+00
2.160000e+00 0.000000e+00 0.000000e+00
2.170000e+00 0.000000e+00 0.000000e+00
2.180000e+00 0.000000e+00 0.000000e+00
2.190000e+00 0.000000e+00 0.000000e+00
2.200000e+00 0.000000e+00 0.000000e+00
2.210000e+00 0.000000e+00 0.000000e+00
2.220000e+00 0.000000e+00 0.000000e+00
2.230000e+00 0.000000e+00 0.000000e+00
2.240000e+00 0.000000e+00 0.000000e+00
2.250000e+00 0.000000e+00 0.000000e+00
2.260000e+00 0.000000e+00 0.000000e+00
2.270000e+00 0.000000e+00 0.000000e+00
2.280000e+00 0.000000e+00 0.000000e+00
2.290000e+00 0.000000e+00 0.000000e+00
2.300000e+00 0.000000e+00 0.000000e+00
2.310000e+00 0.000000e+00 0.000000e+00
2.320000e+00 0.000000e+00 0.000000e+00
2.330000e+00 0.000000e+00 0.000000e+00
2.340000e+00 0.000000e+00 0.000000e+00
2.350000e+00 0.000000e+00 0.000000e+00
2.360000e+00 0.000000e+00 0.000000e+00
2.370000e+00 0.000000e+00 0.000000e+00
2.380000e+00 0.000000e+00 0.000000e+00
2.390000e+00 0.000000e+00 0.000000e+00
2.400000e+00 0.000000e+00 0.000000e+00
2.410000e+00 0.000000e+00 0.000000e+00
2.420000e+00 0.000000e+00 0.000000e+00
2.430000e+00 0.000000e+00 0.000000e+00
2.440000e+00 0.000000e+00 0.000000e+00
2.450000e+00 0.000000e+00 0.000000e+00
2.460000e+00 0.000000e+00 0.000000e+00
2.470000e+00 0.000000e+00 0.000000e+00
2.480000e+00 0.000000e+00 0.000000e+00
2.490000e+00 0.000000e+00 0.000000e+00
2.500000e+00 0.000000e+00 0.000000e+00
2.510000e+00 0.000000e+00 0.000000e+00
2.520000e+00 0.000000e+00 0.000000e+00
2.530000e+00 0.000000e+00 0.000000e+00
[...]
POINT_DATA 501
SCALARS vm float 1
LOOKUP_TABLE default
-1.503253e+00
-1.502961e+00
-1.502380e+00
-1.501516e+00
-1.500380e+00
-1.498958e+00
-1.497334e+00
-1.495515e+00
-1.493502e+00
-1.491297e+00
-1.488922e+00
-1.486379e+00
-1.483673e+00
-1.480817e+00
-1.477814e+00
-1.474670e+00
-1.471394e+00
-1.467990e+00
-1.464461e+00
-1.460820e+00
-1.457066e+00
-1.453203e+00
-1.449244e+00
-1.445185e+00
-1.441031e+00
-1.436795e+00
-1.432472e+00
-1.428066e+00
-1.423590e+00
-1.419037e+00
-1.414413e+00
-1.409729e+00
-1.404976e+00
-1.400168e+00
-1.395300e+00
-1.390376e+00
-1.385405e+00
-1.380381e+00
-1.375309e+00
-1.370197e+00
-1.365039e+00
-1.359841e+00
-1.354608e+00
-1.349334e+00
-1.344030e+00
-1.338690e+00
-1.333316e+00
-1.327920e+00
-1.322490e+00
-1.317033e+00
-1.311556e+00
-1.306050e+00
-1.300524e+00
-1.294976e+00
-1.289405e+00
-1.283820e+00
-1.278213e+00
-1.272587e+00
-1.266951e+00
-1.261294e+00
-1.255623e+00
-1.249943e+00
-1.244245e+00
-1.238540e+00
-1.232820e+00
-1.227087e+00
-1.221350e+00
-1.215599e+00
-1.209838e+00
-1.204074e+00
-1.198298e+00
-1.192518e+00
-1.186729e+00
-1.180931e+00
-1.175134e+00
-1.169326e+00
-1.163511e+00
-1.157698e+00
-1.151876e+00
-1.146050e+00
-1.140224e+00
-1.134389e+00
-1.128557e+00
-1.122718e+00
-1.116875e+00
-1.111035e+00
-1.105188e+00
-1.099339e+00
-1.093493e+00
-1.087640e+00
-1.081791e+00
-1.075937e+00
-1.070080e+00
-1.064229e+00
-1.058372e+00
-1.052513e+00
-1.046659e+00
-1.040800e+00
-1.034944e+00
-1.029086e+00
-1.023226e+00
-1.017372e+00
-1.011513e+00
-1.005653e+00
-9.997989e-01
-9.939404e-01
-9.880829e-01
-9.822296e-01
-9.763715e-01
-9.705198e-01
-9.646650e-01
-9.588083e-01
-9.529591e-01
-9.471055e-01
-9.412523e-01
-9.354046e-01
-9.295525e-01
-9.237060e-01
-9.178578e-01
-9.120074e-01
-9.061649e-01
-9.003181e-01
-8.944711e-01
-8.886308e-01
-8.827861e-01
-8.769458e-01
-8.711055e-01
-8.652626e-01
-8.594275e-01
-8.535883e-01
-8.477484e-01
-8.419158e-01
-8.360790e-01
-8.302435e-01
-8.244130e-01
-8.185779e-01
-8.127495e-01
-8.069184e-01
-8.010856e-01
-7.952605e-01
-7.894311e-01
-7.836020e-01
-7.777789e-01
-7.719510e-01
-7.661288e-01
-7.603049e-01
-7.544786e-01
-7.486603e-01
-7.428374e-01
-7.370141e-01
-7.311974e-01
-7.253760e-01
-7.195588e-01
-7.137414e-01
-7.079210e-01
-7.021082e-01
-6.962910e-01
-6.904725e-01
-6.846613e-01
-6.788454e-01
-6.730304e-01
-6.672202e-01
-6.614048e-01
-6.555958e-01
-6.497838e-01
-6.439694e-01
-6.381627e-01
-6.323510e-01
-6.265392e-01
-6.207331e-01
-6.149216e-01
-6.091155e-01
-6.033073e-01
-5.974961e-01
-5.916925e-01
-5.858840e-01
-5.800745e-01
-5.742713e-01
-5.684629e-01
-5.626581e-01
-5.568530e-01
-5.510442e-01
-5.452426e-01
-5.394362e-01
-5.336281e-01
-5.278269e-01
-5.220205e-01
-5.162145e-01
-5.104131e-01
-5.046058e-01
-4.988047e-01
-4.930002e-01
-4.871927e-01
-4.813926e-01
-4.755872e-01
-4.697811e-01
-4.639805e-01
-4.581741e-01
-4.523725e-01
-4.465687e-01
-4.407613e-01
-4.349613e-01
-4.291560e-01
-4.233491e-01
-4.175485e-01
-4.117421e-01
-4.059390e-01
-4.001354e-01
-3.943276e-01
-3.885263e-01
-3.827209e-01
-3.769127e-01
-3.711114e-01
-3.653044e-01
-3.594975e-01
-3.536949e-01
-3.478862e-01
-3.420833e-01
-3.362768e-01
-3.304669e-01
-3.246643e-01
-3.188559e-01
-3.130467e-01
-3.072427e-01
-3.014326e-01
-2.956270e-01
-2.898191e-01
-2.840072e-01
-2.782026e-01
-2.723924e-01
-2.665803e-01
-2.607745e-01
-2.549625e-01
-2.491530e-01
-2.433441e-01
-2.375300e-01
-2.317224e-01
-2.259104e-01
-2.200953e-01
-2.142872e-01
-2.084730e-01
-2.026587e-01
-1.968488e-01
-1.910323e-01
-1.852216e-01
-1.794072e-01
-1.735891e-01
-1.677783e-01
-1.619615e-01
-1.561436e-01
-1.503311e-01
-1.445121e-01
-1.386975e-01
-1.328807e-01
-1.270596e-01
-1.212457e-01
-1.154262e-01
-1.096045e-01
-1.037892e-01
-9.796751e-02
-9.214777e-02
-8.632956e-02
-8.050553e-02
-7.468794e-02
-6.886598e-02
-6.304073e-02
-5.722247e-02
-5.139810e-02
-4.557348e-02
-3.975336e-02
-3.392654e-02
-2.810545e-02
-2.228073e-02
-1.645217e-02
-1.063100e-02
-4.803843e-03
1.024616e-03
6.847463e-03
1.267689e-02
1.850189e-02
2.432899e-02
3.016052e-02
3.598468e-02
4.181441e-02
4.764639e-02
5.347178e-02
5.930354e-02
6.513383e-02
7.096139e-02
7.679532e-02
8.262267e-02
8.845424e-02
9.428914e-02
1.001168e-01
1.059505e-01
1.117844e-01
1.176135e-01
1.234492e-01
1.292791e-01
1.351124e-01
1.409494e-01
1.467788e-01
1.526140e-01
1.584504e-01
1.642808e-01
1.701177e-01
1.759499e-01
1.817839e-01
1.876221e-01
1.934531e-01
1.992885e-01
2.051264e-01
2.109572e-01
2.167942e-01
2.226295e-01
2.284615e-01
2.342997e-01
2.401308e-01
2.459658e-01
2.518038e-01
2.576339e-01
2.634698e-01
2.693055e-01
2.751357e-01
2.809722e-01
2.868024e-01
2.926353e-01
2.984716e-01
3.042995e-01
3.101326e-01
3.159666e-01
3.217936e-01
3.276266e-01
3.334544e-01
3.392829e-01
3.451153e-01
3.509395e-01
3.567673e-01
3.625970e-01
3.684186e-01
3.742455e-01
3.800700e-01
3.858901e-01
3.917155e-01
3.975329e-01
4.033530e-01
4.091752e-01
4.149884e-01
4.208062e-01
4.266228e-01
4.324325e-01
4.382474e-01
4.440547e-01
4.498632e-01
4.556740e-01
4.614749e-01
4.672795e-01
4.730836e-01
4.788790e-01
4.846789e-01
4.904721e-01
4.962640e-01
5.020582e-01
5.078424e-01
5.136283e-01
5.194143e-01
5.251901e-01
5.309692e-01
5.367443e-01
5.425118e-01
5.482831e-01
5.540438e-01
5.598049e-01
5.655658e-01
5.713151e-01
5.770663e-01
5.828139e-01
5.885516e-01
5.942919e-01
6.000216e-01
6.057494e-01
6.114766e-01
6.171906e-01
6.229050e-01
6.286156e-01
6.343141e-01
6.400134e-01
6.457024e-01
6.513862e-01
6.570686e-01
6.627368e-01
6.684026e-01
6.740644e-01
6.797114e-01
6.853573e-01
6.909947e-01
6.966196e-01
7.022433e-01
7.078515e-01
7.134547e-01
7.190527e-01
7.246332e-01
7.302101e-01
7.357776e-01
7.413292e-01
7.468771e-01
7.524082e-01
7.579308e-01
7.634461e-01
7.689413e-01
7.744296e-01
7.799071e-01
7.853646e-01
7.908154e-01
7.962480e-01
8.016670e-01
8.070763e-01
8.124628e-01
8.178378e-01
8.231999e-01
8.285377e-01
8.338647e-01
8.391733e-01
8.444590e-01
8.497332e-01
8.549811e-01
8.602128e-01
8.654280e-01
8.706140e-01
8.757843e-01
8.809329e-01
8.860527e-01
8.911560e-01
8.962291e-01
9.012796e-01
9.063091e-01
9.113041e-01
9.162765e-01
9.212234e-01
9.261344e-01
9.310226e-01
9.358762e-01
9.406989e-01
9.454946e-01
9.502495e-01
9.549747e-01
9.596681e-01
9.643177e-01
9.689368e-01
9.735171e-01
9.780536e-01
9.825573e-01
9.870125e-01
9.914291e-01
9.958061e-01
1.000130e+00
1.004414e+00
1.008652e+00
1.012835e+00
1.016975e+00
1.021058e+00
1.025092e+00
1.029075e+00
1.032996e+00
1.036864e+00
1.040677e+00
1.044422e+00
1.048113e+00
1.051736e+00
1.055294e+00
1.058792e+00
1.062213e+00
1.065568e+00
1.068854e+00
1.072058e+00
1.075192e+00
1.078248e+00
1.081218e+00
1.084112e+00
1.086914e+00
1.089632e+00
1.092263e+00
1.094794e+00
1.097234e+00
1.099577e+00
1.101811e+00
1.103947e+00
1.105971e+00
1.107878e+00
1.109676e+00
1.111347e+00
1.112891e+00
1.114309e+00
1.115594e+00
1.116727e+00
1.117707e+00
1.118541e+00
1.119226e+00
1.119746e+00
1.120095e+00
1.120272e+00
