# vtk DataFile Version 3.0
Monodomain MVF
ASCII
DATASET POLYDATA
POINTS 501 float
0.000000e+00 0.000000e+00 0.000000e+00
1.000000e-02 0.000000e+00 0.000000e+00
2.000000e-02 0.000000e+00 0.000000e+00
3.000000e-02 0.000000e+00 0.000000e+00
4.000000e-02 0.000000e+00 0.000000e+00
5.000000e-02 0.000000e+00 0.000000e+00
6.000000e-02 0.000000e+00 0.000000e+00
7.000000e-02 0.000000e+00 0.000000e+00
8.000000e-02 0.000000e+00 0.000000e+00
9.000000e-02 0.000000e+00 0.000000e+00
1.000000e-01 0.000000e+00 0.000000e+00
1.100000e-01 0.000000e+00 0.000000e+00
1.200000e-01 0.000000e+00 0.000000e+00
1.300000e-01 0.000000e+00 0.000000e+00
1.400000e-01 0.000000e+00 0.000000e+00
1.500000e-01 0.000000e+00 0.000000e+00
1.600000e-01 0.000000e+00 0.000000e+00
1.700000e-01 0.000000e+00 0.000000e+00
1.800000e-01 0.000000e+00 0.000000e+00
1.900000e-01 0.000000e+00 0.000000e+00
2.000000e-01 0.000000e+00 0.000000e+00
2.100000e-01 0.000000e+00 0.000000e+00
2.200000e-01 0.000000e+00 0.000000e+00
2.300000e-01 0.000000e+00 0.000000e+00
2.400000e-01 0.000000e+00 0.000000e+00
2.500000e-01 0.000000e+00 0.000000e+00
2.600000e-01 0.000000e+00 0.000000e+00
2.700000e-01 0.000000e+00 0.000000e+00
2.800000e-01 0.000000e+00 0.000000e+00
2.900000e-01 0.000000e+00 0.000000e+00
3.000000e-01 0.000000e+00 0.000000e+00
3.100000e-01 0.000000e+00 0.000000e+00
3.200000e-01 0.000000e+00 0.000000e+00
3.300000e-01 0.000000e+00 0.000000e+00
3.400000e-01 0.000000e+00 0.000000e+00
3.500000e-01 0.000000e+00 0.000000e+00
3.600000e-01 0.000000e+00 0.000000e+00
3.700000e-01 0.000000e+00 0.000000e+00
3.800000e-01 0.000000e+00 0.000000e+00
3.900000e-01 0.000000e+00 0.000000e+00
4.000000e-01 0.000000e+00 0.000000e+00
4.100000e-01 0.000000e+00 0.000000e+00
4.200000e-01 0.000000e+00 0.000000e+00
4.300000e-01 0.000000e+00 0.000000e+00
4.400000e-01 0.000000e+00 0.000000e+00
4.500000e-01 0.000000e+00 0.000000e+00
4.600000e-01 0.000000e+00 0.000000e+00
4.700000e-01 0.000000e+00 0.000000e+00
4.800000e-01 0.000000e+00 0.000000e+00
4.900000e-01 0.000000e+00 0.000000e+00
5.000000e-01 0.000000e+00 0.000000e+00
5.100000e-01 0.000000e+00 0.000000e+00
5.200000e-01 0.000000e+00 0.000000e+00
5.300000e-01 0.000000e+00 0.000000e+00
5.400000e-01 0.000000e+00 0.000000e+00
5.500000e-01 0.000000e+00 0.000000e+00
5.600000e-01 0.000000e+00 0.000000e+00
5.700000e-01 0.000000e+00 0.000000e+00
5.800000e-01 0.000000e+00 0.000000e+00
5.900000e-01 0.000000e+00 0.000000e+00
6.000000e-01 0.000000e+00 0.000000e+00
6.100000e-01 0.000000e+00 0.000000e+00
6.200000e-01 0.000000e+00 0.000000e+00
6.300000e-01 0.000000e+00 0.000000e+00
6.400000e-01 0.000000e+00 0.000000e+00
6.500000e-01 0.000000e+00 0.000000e+00
6.600000e-01 0.000000e+00 0.000000e+00
6.700000e-01 0.000000e+00 0.000000e+00
6.800000e-01 0.000000e+00 0.000000e+00
6.900000e-01 0.000000e+00 0.000000e+00
7.000000e-01 0.000000e+00 0.000000e+00
7.100000e-01 0.000000e+00 0.000000e+00
7.200000e-01 0.000000e+00 0.000000e+00
7.300000e-01 0.000000e+00 0.000000e+00
7.400000e-01 0.000000e+00 0.000000e+00
7.500000e-01 0.000000e+00 0.000000e+00
7.600000e-01 0.000000e+00 0.000000e+00
7.700000e-01 0.000000e+00 0.000000e+00
7.800000e-01 0.000000e+00 0.000000e+00
7.900000e-01 0.000000e+00 0.000000e+00
8.000000e-01 0.000000e+00 0.000000e+00
8.100000e-01 0.000000e+00 0.000000e+00
8.200000e-01 0.000000e+00 0.000000e+00
8.300000e-01 0.000000e+00 0.000000e+00
8.400000e-01 0.000000e+00 0.000000e+00
8.500000e-01 0.000000e+00 0.000000e+00
8.600000e-01 0.000000e+00 0.000000e+00
8.700000e-01 0.000000e+00 0.000000e+00
8.800000e-01 0.000000e+00 0.000000e+00
8.900000e-01 0.000000e+00 0.000000e+00
9.000000e-01 0.000000e+00 0.000000e+00
9.100000e-01 0.000000e+00 0.000000e+00
9.200000e-01 0.000000e+00 0.000000e+00
9.300000e-01 0.000000e+00 0.000000e+00
9.400000e-01 0.000000e+00 0.000000e+00
9.500000e-01 0.000000e+00 0.000000e+00
9.600000e-01 0.000000e+00 0.000000e+00
9.700000e-01 0.000000e+00 0.000000e+00
9.800000e-01 0.000000e+00 0.000000e+00
9.900000e-01 0.000000e+00 0.000000e+00
1.000000e+00 0.000000e+00 0.000000e+00
1.010000e+00 0.000000e+00 0.000000e+00
1.020000e+00 0.000000e+00 0.000000e+00
1.030000e+00 0.000000e+00 0.000000e+00
1.040000e+00 0.000000e+00 0.000000e+00
1.050000e+00 0.000000e+00 0.000000e+00
1.060000e+00 0.000000e+00 0.000000e+00
1.070000e+00 0.000000e+00 0.000000e+00
1.080000e+00 0.000000e+00 0.000000e+00
1.090000e+00 0.000000e+00 0.000000e+00
1.100000e+00 0.000000e+00 0.000000e+00
1.110000e+00 0.000000e+00 0.000000e+00
1.120000e+00 0.000000e+00 0.000000e+00
1.130000e+00 0.000000e+00 0.000000e+00
1.140000e+00 0.000000e+00 0.000000e+00
1.150000e+00 0.000000e+00 0.000000e+00
1.160000e+00 0.000000e+00 0.000000e+00
1.170000e+00 0.000000e+00 0.000000e+00
1.180000e+00 0.000000e+00 0.000000e+00
1.190000e+00 0.000000e+00 0.000000e+00
1.200000e+00 0.000000e+00 0.000000e+00
1.210000e+00 0.000000e+00 0.000000e+00
1.220000e+00 0.000000e+00 0.000000e+00
1.230000e+00 0.000000e+00 0.000000e+00
1.240000e+00 0.000000e+00 0.000000e+00
1.250000e+00 0.000000e+00 0.000000e+00
1.260000e+00 0.000000e+00 0.000000e+00
1.270000e+00 0.000000e+00 0.000000e+00
1.280000e+00 0.000000e+00 0.000000e+00
1.290000e+00 0.000000e+00 0.000000e+00
1.300000e+00 0.000000e+00 0.000000e+00
1.310000e+00 0.000000e+00 0.000000e+00
1.320000e+00 0.000000e+00 0.000000e+00
1.330000e+00 0.000000e+00 0.000000e+00
1.340000e+00 0.000000e+00 0.000000e+00
1.350000e+00 0.000000e+00 0.000000e+00
1.360000e+00 0.000000e+00 0.000000e+00
1.370000e+00 0.000000e+00 0.000000e+00
1.380000e+00 0.000000e+00 0.000000e+00
1.390000e+00 0.000000e+00 0.000000e+00
1.400000e+00 0.000000e+00 0.000000e+00
1.410000e+00 0.000000e+00 0.000000e+00
1.420000e+00 0.000000e+00 0.000000e+00
1.430000e+00 0.000000e+00 0.000000e+00
1.440000e+00 0.000000e+00 0.000000e+00
1.450000e+00 0.000000e+00 0.000000e+00
1.460000e+00 0.000000e+00 0.000000e+00
1.470000e+00 0.000000e+00 0.000000e+00
1.480000e+00 0.000000e+00 0.000000e+00
1.490000e+00 0.000000e+00 0.000000e+00
1.500000e+00 0.000000e+00 0.000000e+00
1.510000e+00 0.000000e+00 0.000000e+00
1.520000e+00 0.000000e+00 0.000000e+00
1.530000e+00 0.000000e+00 0.000000e+00
1.540000e+00 0.000000e+00 0.000000e+00
1.550000e+00 0.000000e+00 0.000000e+00
1.560000e+00 0.000000e+00 0.000000e+00
1.570000e+00 0.000000e+00 0.000000e+00
1.580000e+00 0.000000e+00 0.000000e+00
1.590000e+00 0.000000e+00 0.000000e+00
1.600000e+00 0.000000e+00 0.000000e+00
1.610000e+00 0.000000e+00 0.000000e+00
1.620000e+00 0.000000e+00 0.000000e+00
1.630000e+00 0.000000e+00 0.000000e+00
1.640000e+00 0.000000e+00 0.000000e+00
1.650000e+00 0.000000e+00 0.000000e+00
1.660000e+00 0.000000e+00 0.000000e+00
1.670000e+00 0.000000e+00 0.000000e+00
1.680000e+00 0.000000e+00 0.000000e+00
1.690000e+00 0.000000e+00 0.000000e+00
1.700000e+00 0.000000e+00 0.000000e+00
1.710000e+00 0.000000e+00 0.000000e+00
1.720000e+00 0.000000e+00 0.000000e+00
1.730000e+00 0.000000e+00 0.000000e+00
1.740000e+00 0.000000e+00 0.000000e+00
1.750000e+00 0.000000e+00 0.000000e+00
1.760000e+00 0.000000e+00 0.000000e+00
1.770000e+00 0.000000e+00 0.000000e+00
1.780000e+00 0.000000e+00 0.000000e+00
1.790000e+00 0.000000e+00 0.000000e+00
1.800000e+00 0.000000e+00 0.000000e+00
1.810000e+00 0.000000e+00 0.000000e+00
1.820000e+00 0.000000e+00 0.000000e+00
1.830000e+00 0.000000e+00 0.000000e+00
1.840000e+00 0.000000e+00 0.000000e+00
1.850000e+00 0.000000e+00 0.000000e+00
1.860000e+00 0.000000e+00 0.000000e+00
1.870000e+00 0.000000e+00 0.000000e+00
1.880000e+00 0.000000e+00 0.000000e+00
1.890000e+00 0.000000e+00 0.000000e+00
1.900000e+00 0.000000e+00 0.000000e+00
1.910000e+00 0.000000e+00 0.000000e+00
1.920000e+00 0.000000e+00 0.000000e+00
1.930000e+00 0.000000e+00 0.000000e+00
1.940000e+00 0.000000e+00 0.000000e+00
1.950000e+00 0.000000e+00 0.000000e+00
1.960000e+00 0.000000e+00 0.000000e+00
1.970000e+00 0.000000e+00 0.000000e+00
1.980000e+00 0.000000e+00 0.000000e+00
1.990000e+00 0.000000e+00 0.000000e+00
2.000000e+00 0.000000e+00 0.000000e+00
2.010000e+00 0.000000e+00 0.000000e+00
2.020000e+00 0.000000e+00 0.000000e+00
2.030000e+00 0.000000e+00 0.000000e+00
2.040000e+00 0.000000e+00 0.000000e+00
2.050000e+00 0.000000e+00 0.000000e+00
2.060000e+00 0.000000e+00 0.000000e+00
2.070000e+00 0.000000e+00 0.000000e+00
2.080000e+00 0.000000e+00 0.000000e+00
2.090000e+00 0.000000e+00 0.000000e+00
2.100000e+00 0.000000e+00 0.000000e+00
2.110000e+00 0.000000e+00 0.000000e+00
2.120000e+00 0.000000e+00 0.000000e+00
2.130000e+00 0.000000e+00 0.000000e+00
2.140000e+00 0.000000e+00 0.000000e+00
2.150000e+00 0.000000e+00 0.000000e+00
2.160000e+00 0.000000e+00 0.000000e+00
2.170000e+00 0.000000e+00 0.000000e+00
2.180000e+00 0.000000e+00 0.000000e+00
2.190000e+00 0.000000e+00 0.000000e+00
2.200000e+00 0.000000e+00 0.000000e+00
2.210000e+00 0.000000e+00 0.000000e+00
2.220000e+00 0.000000e+00 0.000000e+00
2.230000e+00 0.000000e+00 0.000000e+00
2.240000e+00 0.000000e+00 0.000000e+00
2.250000e+00 0.000000e+00 0.000000e+00
2.260000e+00 0.000000e+00 0.000000e+00
2.270000e+00 0.000000e+00 0.000000e+00
2.280000e+00 0.000000e+00 0.000000e+00
2.290000e+00 0.000000e+00 0.000000e+00
2.300000e+00 0.000000e+00 0.000000e+00
2.310000e+00 0.000000e+00 0.000000e+00
2.320000e+00 0.000000e+00 0.000000e+00
2.330000e+00 0.000000e+00 0.000000e+00
2.340000e+00 0.000000e+00 0.000000e+00
2.350000e+00 0.000000e+00 0.000000e+00
2.360000e+00 0.000000e+00 0.000000e+00
2.370000e+00 0.000000e+00 0.000000e+00
2.380000e+00 0.000000e+00 0.000000e+00
2.390000e+00 0.000000e+00 0.000000e+00
2.400000e+00 0.000000e+00 0.000000e+00
2.410000e+00 0.000000e+00 0.000000e+00
2.420000e+00 0.000000e+00 0.000000e+00
2.430000e+00 0.000000e+00 0.000000e+00
2.440000e+00 0.000000e+00 0.000000e+00
2.450000e+00 0.000000e+00 0.000000e+00
2.460000e+00 0.000000e+00 0.000000e+00
2.470000e+00 0.000000e+00 0.000000e+00
2.480000e+00 0.000000e+00 0.000000e+00
2.490000e+00 0.000000e+00 0.000000e+00
2.500000e+00 0.000000e+00 0.000000e+00
2.510000e+00 0.000000e+00 0.000000e+00
2.520000e+00 0.000000e+00 0.000000e+00
2.530000e+00 0.000000e+00 0.000000e+00
[...]
POINT_DATA 501
SCALARS vm float 1
LOOKUP_TABLE default
-8.169175e+01
-8.169168e+01
-8.169154e+01
-8.169134e+01
-8.169107e+01
-8.169065e+01
-8.169026e+01
-8.168980e+01
-8.168929e+01
-8.168872e+01
-8.168810e+01
-8.168742e+01
-8.168668e+01
-8.168589e+01
-8.168505e+01
-8.168415e+01
-8.168320e+01
-8.168219e+01
-8.168113e+01
-8.168002e+01
-8.167886e+01
-8.167765e+01
-8.167638e+01
-8.167507e+01
-8.167370e+01
-8.167228e+01
-8.167081e+01
-8.166930e+01
-8.166773e+01
-8.166611e+01
-8.166445e+01
-8.166273e+01
-8.166097e+01
-8.165916e+01
-8.165730e+01
-8.165539e+01
-8.165344e+01
-8.165143e+01
-8.164938e+01
-8.164728e+01
-8.164514e+01
-8.164294e+01
-8.164070e+01
-8.163842e+01
-8.163608e+01
-8.163370e+01
-8.163128e+01
-8.162880e+01
-8.162629e+01
-8.162372e+01
-8.162111e+01
-8.161845e+01
-8.161575e+01
-8.161300e+01
-8.161021e+01
-8.160737e+01
-8.160449e+01
-8.160156e+01
-8.159859e+01
-8.159557e+01
-8.159251e+01
-8.158940e+01
-8.158625e+01
-8.158305e+01
-8.157981e+01
-8.157652e+01
-8.157319e+01
-8.156982e+01
-8.156640e+01
-8.156294e+01
-8.155943e+01
-8.155588e+01
-8.155229e+01
-8.154865e+01
-8.154497e+01
-8.154125e+01
-8.153748e+01
-8.153367e+01
-8.152982e+01
-8.152592e+01
-8.152199e+01
-8.151800e+01
-8.151398e+01
-8.150991e+01
-8.150580e+01
-8.150165e+01
-8.149746e+01
-8.149322e+01
-8.148894e+01
-8.148462e+01
-8.148025e+01
-8.147585e+01
-8.147140e+01
-8.146691e+01
-8.146238e+01
-8.145781e+01
-8.145319e+01
-8.144854e+01
-8.144384e+01
-8.143910e+01
-8.143432e+01
-8.142950e+01
-8.142464e+01
-8.141974e+01
-8.141480e+01
-8.140981e+01
-8.140479e+01
-8.139973e+01
-8.139462e+01
-8.138948e+01
-8.138429e+01
-8.137906e+01
-8.137380e+01
-8.136849e+01
-8.136315e+01
-8.135777e+01
-8.135234e+01
-8.134688e+01
-8.134137e+01
-8.133583e+01
-8.133025e+01
-8.132463e+01
-8.131897e+01
-8.131327e+01
-8.130754e+01
-8.130176e+01
-8.129595e+01
-8.129009e+01
-8.128420e+01
-8.127828e+01
-8.127231e+01
-8.126630e+01
-8.126026e+01
-8.125418e+01
-8.124806e+01
-8.124191e+01
-8.123572e+01
-8.122949e+01
-8.122322e+01
-8.121692e+01
-8.121058e+01
-8.120420e+01
-8.119779e+01
-8.119134e+01
-8.118485e+01
-8.117833e+01
-8.117177e+01
-8.116518e+01
-8.115855e+01
-8.115189e+01
-8.114519e+01
-8.113845e+01
-8.113168e+01
-8.112488e+01
-8.111803e+01
-8.111116e+01
-8.110425e+01
-8.109730e+01
-8.109033e+01
-8.108331e+01
-8.107627e+01
-8.106919e+01
-8.106207e+01
-8.105493e+01
-8.104775e+01
-8.104053e+01
-8.103329e+01
-8.102601e+01
-8.101869e+01
-8.101135e+01
-8.100397e+01
-8.099656e+01
-8.098912e+01
-8.098165e+01
-8.097415e+01
-8.096661e+01
-8.095904e+01
-8.095145e+01
-8.094382e+01
-8.093616e+01
-8.092847e+01
-8.092075e+01
-8.091300e+01
-8.090522e+01
-8.089740e+01
-8.088957e+01
-8.088170e+01
-8.087380e+01
-8.086587e+01
-8.085791e+01
-8.084993e+01
-8.084192e+01
-8.083387e+01
-8.082581e+01
-8.081771e+01
-8.080958e+01
-8.080143e+01
-8.079325e+01
-8.078505e+01
-8.077682e+01
-8.076856e+01
-8.076027e+01
-8.075196e+01
-8.074362e+01
-8.073526e+01
-8.072687e+01
-8.071846e+01
-8.071002e+01
-8.070156e+01
-8.069307e+01
-8.068456e+01
-8.067603e+01
-8.066747e+01
-8.065889e+01
-8.065028e+01
-8.064166e+01
-8.063301e+01
-8.062433e+01
-8.061564e+01
-8.060692e+01
-8.059818e+01
-8.058942e+01
-8.058064e+01
-8.057184e+01
-8.056302e+01
-8.055418e+01
-8.054532e+01
-8.053643e+01
-8.052753e+01
-8.051861e+01
-8.050967e+01
-8.050071e+01
-8.049174e+01
-8.048274e+01
-8.047373e+01
-8.046470e+01
-8.045565e+01
-8.044659e+01
-8.043751e+01
-8.042841e+01
-8.041930e+01
-8.041017e+01
-8.040103e+01
-8.039187e+01
-8.038269e+01
-8.037350e+01
-8.036430e+01
-8.035509e+01
-8.034586e+01
-8.033661e+01
-8.032736e+01
-8.031809e+01
-8.030881e+01
-8.029952e+01
-8.029021e+01
-8.028090e+01
-8.027157e+01
-8.026223e+01
-8.025289e+01
-8.024353e+01
-8.023416e+01
-8.022479e+01
-8.021540e+01
-8.020601e+01
-8.019661e+01
-8.018720e+01
-8.017778e+01
-8.016836e+01
-8.015892e+01
-8.014949e+01
-8.014004e+01
-8.013060e+01
-8.012114e+01
-8.011168e+01
-8.010222e+01
-8.009275e+01
-8.008328e+01
-8.007380e+01
-8.006432e+01
-8.005484e+01
-8.004536e+01
-8.003587e+01
-8.002639e+01
-8.001690e+01
-8.000741e+01
-7.999792e+01
-7.998843e+01
-7.997894e+01
-7.996945e+01
-7.995996e+01
-7.995048e+01
-7.994099e+01
-7.993151e+01
-7.992203e+01
-7.991256e+01
-7.990308e+01
-7.989362e+01
-7.988415e+01
-7.987469e+01
-7.986524e+01
-7.985579e+01
-7.984635e+01
-7.983691e+01
-7.982748e+01
-7.981806e+01
-7.980864e+01
-7.979924e+01
-7.978984e+01
-7.978045e+01
-7.977107e+01
-7.976170e+01
-7.975234e+01
-7.974299e+01
-7.973365e+01
-7.972432e+01
-7.971501e+01
-7.970570e+01
-7.969641e+01
-7.968714e+01
-7.967787e+01
-7.966862e+01
-7.965939e+01
-7.965017e+01
-7.964097e+01
-7.963178e+01
-7.962260e+01
-7.961345e+01
-7.960431e+01
-7.959519e+01
-7.958608e+01
-7.957700e+01
-7.956793e+01
-7.955889e+01
-7.954986e+01
-7.954085e+01
-7.953187e+01
-7.952290e+01
-7.951396e+01
-7.950504e+01
-7.949614e+01
-7.948727e+01
-7.947841e+01
-7.946959e+01
-7.946078e+01
-7.945200e+01
-7.944325e+01
-7.943452e+01
-7.942582e+01
-7.941714e+01
-7.940849e+01
-7.939987e+01
-7.939128e+01
-7.938272e+01
-7.937418e+01
-7.936567e+01
-7.935720e+01
-7.934875e+01
-7.934033e+01
-7.933195e+01
-7.932359e+01
-7.931527e+01
-7.930698e+01
-7.929873e+01
-7.929051e+01
-7.928232e+01
-7.927416e+01
-7.926604e+01
-7.925796e+01
-7.924991e+01
-7.924190e+01
-7.923392e+01
-7.922598e+01
-7.921808e+01
-7.921022e+01
-7.920239e+01
-7.919460e+01
-7.918686e+01
-7.917915e+01
-7.917148e+01
-7.916385e+01
-7.915627e+01
-7.914872e+01
-7.914122e+01
-7.913376e+01
-7.912634e+01
-7.911897e+01
-7.911164e+01
-7.910435e+01
-7.909711e+01
-7.908991e+01
-7.908276e+01
-7.907566e+01
-7.906860e+01
-7.906159e+01
-7.905462e+01
-7.904770e+01
-7.904083e+01
-7.903401e+01
-7.902724e+01
-7.902051e+01
-7.901384e+01
-7.900722e+01
-7.900064e+01
-7.899412e+01
-7.898765e+01
-7.898123e+01
-7.897486e+01
-7.896855e+01
-7.896229e+01
-7.895608e+01
-7.894992e+01
-7.894382e+01
-7.893778e+01
-7.893179e+01
-7.892585e+01
-7.891997e+01
-7.891415e+01
-7.890838e+01
-7.890267e+01
-7.889701e+01
-7.889142e+01
-7.888588e+01
-7.888040e+01
-7.887498e+01
-7.886962e+01
-7.886432e+01
-7.885908e+01
-7.885389e+01
-7.884877e+01
-7.884371e+01
-7.883871e+01
-7.883378e+01
-7.882890e+01
-7.882409e+01
-7.881934e+01
-7.881465e+01
-7.881002e+01
-7.880546e+01
-7.880096e+01
-7.879653e+01
-7.879216e+01
-7.878786e+01
-7.878362e+01
-7.877945e+01
-7.877534e+01
-7.877130e+01
-7.876732e+01
-7.876342e+01
-7.875958e+01
-7.875580e+01
-7.875210e+01
-7.874846e+01
-7.874489e+01
-7.874138e+01
-7.873795e+01
-7.873459e+01
-7.873129e+01
-7.872806e+01
-7.872491e+01
-7.872182e+01
-7.871880e+01
-7.871586e+01
-7.871298e+01
-7.871017e+01
-7.870744e+01
-7.870478e+01
-7.870218e+01
-7.869966e+01
-7.869721e+01
-7.869484e+01
-7.869253e+01
-7.869030e+01
-7.868814e+01
-7.868605e+01
-7.868403e+01
-7.868209e+01
-7.868022e+01
-7.867842e+01
-7.867669e+01
-7.867504e+01
-7.867347e+01
-7.867196e+01
-7.867053e+01
-7.866917e+01
-7.866789e+01
-7.866668e+01
-7.866554e+01
-7.866448e+01
-7.866349e+01
-7.866258e+01
-7.866174e+01
-7.866098e+01
-7.866029e+01
-7.865967e+01
-7.865913e+01
-7.865867e+01
-7.865829e+01
-7.865798e+01
-7.865775e+01
-7.865759e+01
-7.865751e+01
