# vtk DataFile Version 3.0
Monodomain MVF
ASCII
DATASET POLYDATA
POINTS 501 float
0.000000e+00 0.000000e+00 0.000000e+00
1.000000e-02 0.000000e+00 0.000000e+00
2.000000e-02 0.000000e+00 0.000000e+00
3.000000e-02 0.000000e+00 0.000000e+00
4.000000e-02 0.000000e+00 0.000000e+00
5.000000e-02 0.000000e+00 0.000000e+00
6.000000e-02 0.000000e+00 0.000000e+00
7.000000e-02 0.000000e+00 0.000000e+00
8.000000e-02 0.000000e+00 0.000000e+00
9.000000e-02 0.000000e+00 0.000000e+00
1.000000e-01 0.000000e+00 0.000000e+00
1.100000e-01 0.000000e+00 0.000000e+00
1.200000e-01 0.000000e+00 0.000000e+00
1.300000e-01 0.000000e+00 0.000000e+00
1.400000e-01 0.000000e+00 0.000000e+00
1.500000e-01 0.000000e+00 0.000000e+00
1.600000e-01 0.000000e+00 0.000000e+00
1.700000e-01 0.000000e+00 0.000000e+00
1.800000e-01 0.000000e+00 0.000000e+00
1.900000e-01 0.000000e+00 0.000000e+00
2.000000e-01 0.000000e+00 0.000000e+00
2.100000e-01 0.000000e+00 0.000000e+00
2.200000e-01 0.000000e+00 0.000000e+00
2.300000e-01 0.000000e+00 0.000000e+00
2.400000e-01 0.000000e+00 0.000000e+00
2.500000e-01 0.000000e+00 0.000000e+00
2.600000e-01 0.000000e+00 0.000000e+00
2.700000e-01 0.000000e+00 0.000000e+00
2.800000e-01 0.000000e+00 0.000000e+00
2.900000e-01 0.000000e+00 0.000000e+00
3.000000e-01 0.000000e+00 0.000000e+00
3.100000e-01 0.000000e+00 0.000000e+00
3.200000e-01 0.000000e+00 0.000000e+00
3.300000e-01 0.000000e+00 0.000000e+00
3.400000e-01 0.000000e+00 0.000000e+00
3.500000e-01 0.000000e+00 0.000000e+00
3.600000e-01 0.000000e+00 0.000000e+00
3.700000e-01 0.000000e+00 0.000000e+00
3.800000e-01 0.000000e+00 0.000000e+00
3.900000e-01 0.000000e+00 0.000000e+00
4.000000e-01 0.000000e+00 0.000000e+00
4.100000e-01 0.000000e+00 0.000000e+00
4.200000e-01 0.000000e+00 0.000000e+00
4.300000e-01 0.000000e+00 0.000000e+00
4.400000e-01 0.000000e+00 0.000000e+00
4.500000e-01 0.000000e+00 0.000000e+00
4.600000e-01 0.000000e+00 0.000000e+00
4.700000e-01 0.000000e+00 0.000000e+00
4.800000e-01 0.000000e+00 0.000000e+00
4.900000e-01 0.000000e+00 0.000000e+00
5.000000e-01 0.000000e+00 0.000000e+00
5.100000e-01 0.000000e+00 0.000000e+00
5.200000e-01 0.000000e+00 0.000000e+00
5.300000e-01 0.000000e+00 0.000000e+00
5.400000e-01 0.000000e+00 0.000000e+00
5.500000e-01 0.000000e+00 0.000000e+00
5.600000e-01 0.000000e+00 0.000000e+00
5.700000e-01 0.000000e+00 0.000000e+00
5.800000e-01 0.000000e+00 0.000000e+00
5.900000e-01 0.000000e+00 0.000000e+00
6.000000e-01 0.000000e+00 0.000000e+00
6.100000e-01 0.000000e+00 0.000000e+00
6.200000e-01 0.000000e+00 0.000000e+00
6.300000e-01 0.000000e+00 0.000000e+00
6.400000e-01 0.000000e+00 0.000000e+00
6.500000e-01 0.000000e+00 0.000000e+00
6.600000e-01 0.000000e+00 0.000000e+00
6.700000e-01 0.000000e+00 0.000000e+00
6.800000e-01 0.000000e+00 0.000000e+00
6.900000e-01 0.000000e+00 0.000000e+00
7.000000e-01 0.000000e+00 0.000000e+00
7.100000e-01 0.000000e+00 0.000000e+00
7.200000e-01 0.000000e+00 0.000000e+00
7.300000e-01 0.000000e+00 0.000000e+00
7.400000e-01 0.000000e+00 0.000000e+00
7.500000e-01 0.000000e+00 0.000000e+00
7.600000e-01 0.000000e+00 0.000000e+00
7.700000e-01 0.000000e+00 0.000000e+00
7.800000e-01 0.000000e+00 0.000000e+00
7.900000e-01 0.000000e+00 0.000000e+00
8.000000e-01 0.000000e+00 0.000000e+00
8.100000e-01 0.000000e+00 0.000000e+00
8.200000e-01 0.000000e+00 0.000000e+00
8.300000e-01 0.000000e+00 0.000000e+00
8.400000e-01 0.000000e+00 0.000000e+00
8.500000e-01 0.000000e+00 0.000000e+00
8.600000e-01 0.000000e+00 0.000000e+00
8.700000e-01 0.000000e+00 0.000000e+00
8.800000e-01 0.000000e+00 0.000000e+00
8.900000e-01 0.000000e+00 0.000000e+00
9.000000e-01 0.000000e+00 0.000000e+00
9.100000e-01 0.000000e+00 0.000000e+00
9.200000e-01 0.000000e+00 0.000000e+00
9.300000e-01 0.000000e+00 0.000000e+00
9.400000e-01 0.000000e+00 0.000000e+00
9.500000e-01 0.000000e+00 0.000000e+00
9.600000e-01 0.000000e+00 0.000000e+00
9.700000e-01 0.000000e+00 0.000000e+00
9.800000e-01 0.000000e+00 0.000000e+00
9.900000e-01 0.000000e+00 0.000000e+00
1.000000e+00 0.000000e+00 0.000000e+00
1.010000e+00 0.000000e+00 0.000000e+00
1.020000e+00 0.000000e+00 0.000000e+00
1.030000e+00 0.000000e+00 0.000000e+00
1.040000e+00 0.000000e+00 0.000000e+00
1.050000e+00 0.000000e+00 0.000000e+00
1.060000e+00 0.000000e+00 0.000000e+00
1.070000e+00 0.000000e+00 0.000000e+00
1.080000e+00 0.000000e+00 0.000000e+00
1.090000e+00 0.000000e+00 0.000000e+00
1.100000e+00 0.000000e+00 0.000000e+00
1.110000e+00 0.000000e+00 0.000000e+00
1.120000e+00 0.000000e+00 0.000000e+00
1.130000e+00 0.000000e+00 0.000000e+00
1.140000e+00 0.000000e+00 0.000000e+00
1.150000e+00 0.000000e+00 0.000000e+00
1.160000e+00 0.000000e+00 0.000000e+00
1.170000e+00 0.000000e+00 0.000000e+00
1.180000e+00 0.000000e+00 0.000000e+00
1.190000e+00 0.000000e+00 0.000000e+00
1.200000e+00 0.000000e+00 0.000000e+00
1.210000e+00 0.000000e+00 0.000000e+00
1.220000e+00 0.000000e+00 0.000000e+00
1.230000e+00 0.000000e+00 0.000000e+00
1.240000e+00 0.000000e+00 0.000000e+00
1.250000e+00 0.000000e+00 0.000000e+00
1.260000e+00 0.000000e+00 0.000000e+00
1.270000e+00 0.000000e+00 0.000000e+00
1.280000e+00 0.000000e+00 0.000000e+00
1.290000e+00 0.000000e+00 0.000000e+00
1.300000e+00 0.000000e+00 0.000000e+00
1.310000e+00 0.000000e+00 0.000000e+00
1.320000e+00 0.000000e+00 0.000000e+00
1.330000e+00 0.000000e+00 0.000000e+00
1.340000e+00 0.000000e+00 0.000000e+00
1.350000e+00 0.000000e+00 0.000000e+00
1.360000e+00 0.000000e+00 0.000000e+00
1.370000e+00 0.000000e+00 0.000000e+00
1.380000e+00 0.000000e+00 0.000000e+00
1.390000e+00 0.000000e+00 0.000000e+00
1.400000e+00 0.000000e+00 0.000000e+00
1.410000e+00 0.000000e+00 0.000000e+00
1.420000e+00 0.000000e+00 0.000000e+00
1.430000e+00 0.000000e+00 0.000000e+00
1.440000e+00 0.000000e+00 0.000000e+00
1.450000e+00 0.000000e+00 0.000000e+00
1.460000e+00 0.000000e+00 0.000000e+00
1.470000e+00 0.000000e+00 0.000000e+00
1.480000e+00 0.000000e+00 0.000000e+00
1.490000e+00 0.000000e+00 0.000000e+00
1.500000e+00 0.000000e+00 0.000000e+00
1.510000e+00 0.000000e+00 0.000000e+00
1.520000e+00 0.000000e+00 0.000000e+00
1.530000e+00 0.000000e+00 0.000000e+00
1.540000e+00 0.000000e+00 0.000000e+00
1.550000e+00 0.000000e+00 0.000000e+00
1.560000e+00 0.000000e+00 0.000000e+00
1.570000e+00 0.000000e+00 0.000000e+00
1.580000e+00 0.000000e+00 0.000000e+00
1.590000e+00 0.000000e+00 0.000000e+00
1.600000e+00 0.000000e+00 0.000000e+00
1.610000e+00 0.000000e+00 0.000000e+00
1.620000e+00 0.000000e+00 0.000000e+00
1.630000e+00 0.000000e+00 0.000000e+00
1.640000e+00 0.000000e+00 0.000000e+00
1.650000e+00 0.000000e+00 0.000000e+00
1.660000e+00 0.000000e+00 0.000000e+00
1.670000e+00 0.000000e+00 0.000000e+00
1.680000e+00 0.000000e+00 0.000000e+00
1.690000e+00 0.000000e+00 0.000000e+00
1.700000e+00 0.000000e+00 0.000000e+00
1.710000e+00 0.000000e+00 0.000000e+00
1.720000e+00 0.000000e+00 0.000000e+00
1.730000e+00 0.000000e+00 0.000000e+00
1.740000e+00 0.000000e+00 0.000000e+00
1.750000e+00 0.000000e+00 0.000000e+00
1.760000e+00 0.000000e+00 0.000000e+00
1.770000e+00 0.000000e+00 0.000000e+00
1.780000e+00 0.000000e+00 0.000000e+00
1.790000e+00 0.000000e+00 0.000000e+00
1.800000e+00 0.000000e+00 0.000000e+00
1.810000e+00 0.000000e+00 0.000000e+00
1.820000e+00 0.000000e+00 0.000000e+00
1.830000e+00 0.000000e+00 0.000000e+00
1.840000e+00 0.000000e+00 0.000000e+00
1.850000e+00 0.000000e+00 0.000000e+00
1.860000e+00 0.000000e+00 0.000000e+00
1.870000e+00 0.000000e+00 0.000000e+00
1.880000e+00 0.000000e+00 0.000000e+00
1.890000e+00 0.000000e+00 0.000000e+00
1.900000e+00 0.000000e+00 0.000000e+00
1.910000e+00 0.000000e+00 0.000000e+00
1.920000e+00 0.000000e+00 0.000000e+00
1.930000e+00 0.000000e+00 0.000000e+00
1.940000e+00 0.000000e+00 0.000000e+00
1.950000e+00 0.000000e+00 0.000000e+00
1.960000e+00 0.000000e+00 0.000000e+00
1.970000e+00 0.000000e+00 0.000000e+00
1.980000e+00 0.000000e+00 0.000000e+00
1.990000e+00 0.000000e+00 0.000000e+00
2.000000e+00 0.000000e+00 0.000000e+00
2.010000e+00 0.000000e+00 0.000000e+00
2.020000e+00 0.000000e+00 0.000000e+00
2.030000e+00 0.000000e+00 0.000000e+00
2.040000e+00 0.000000e+00 0.000000e+00
2.050000e+00 0.000000e+00 0.000000e+00
2.060000e+00 0.000000e+00 0.000000e+00
2.070000e+00 0.000000e+00 0.000000e+00
2.080000e+00 0.000000e+00 0.000000e+00
2.090000e+00 0.000000e+00 0.000000e+00
2.100000e+00 0.000000e+00 0.000000e+00
2.110000e+00 0.000000e+00 0.000000e+00
2.120000e+00 0.000000e+00 0.000000e+00
2.130000e+00 0.000000e+00 0.000000e+00
2.140000e+00 0.000000e+00 0.000000e+00
2.150000e+00 0.000000e+00 0.000000e+00
2.160000e+00 0.000000e+00 0.000000e+00
2.170000e+00 0.000000e+00 0.000000e+00
2.180000e+00 0.000000e+00 0.000000e+00
2.190000e+00 0.000000e+00 0.000000e+00
2.200000e+00 0.000000e+00 0.000000e+00
2.210000e+00 0.000000e+00 0.000000e+00
2.220000e+00 0.000000e+00 0.000000e+00
2.230000e+00 0.000000e+00 0.000000e+00
2.240000e+00 0.000000e+00 0.000000e+00
2.250000e+00 0.000000e+00 0.000000e+00
2.260000e+00 0.000000e+00 0.000000e+00
2.270000e+00 0.000000e+00 0.000000e+00
2.280000e+00 0.000000e+00 0.000000e+00
2.290000e+00 0.000000e+00 0.000000e+00
2.300000e+00 0.000000e+00 0.000000e+00
2.310000e+00 0.000000e+00 0.000000e+00
2.320000e+00 0.000000e+00 0.000000e+00
2.330000e+00 0.000000e+00 0.000000e+00
2.340000e+00 0.000000e+00 0.000000e+00
2.350000e+00 0.000000e+00 0.000000e+00
2.360000e+00 0.000000e+00 0.000000e+00
2.370000e+00 0.000000e+00 0.000000e+00
2.380000e+00 0.000000e+00 0.000000e+00
2.390000e+00 0.000000e+00 0.000000e+00
2.400000e+00 0.000000e+00 0.000000e+00
2.410000e+00 0.000000e+00 0.000000e+00
2.420000e+00 0.000000e+00 0.000000e+00
2.430000e+00 0.000000e+00 0.000000e+00
2.440000e+00 0.000000e+00 0.000000e+00
2.450000e+00 0.000000e+00 0.000000e+00
2.460000e+00 0.000000e+00 0.000000e+00
2.470000e+00 0.000000e+00 0.000000e+00
2.480000e+00 0.000000e+00 0.000000e+00
2.490000e+00 0.000000e+00 0.000000e+00
2.500000e+00 0.000000e+00 0.000000e+00
2.510000e+00 0.000000e+00 0.000000e+00
2.520000e+00 0.000000e+00 0.000000e+00
2.530000e+00 0.000000e+00 0.000000e+00
[...]
POINT_DATA 501
SCALARS vm float 1
LOOKUP_TABLE default
-4.876610e+01
-4.876593e+01
-4.876558e+01
-4.876507e+01
-4.876439e+01
-4.876353e+01
-4.876253e+01
-4.876137e+01
-4.876005e+01
-4.875858e+01
-4.875697e+01
-4.875520e+01
-4.875329e+01
-4.875123e+01
-4.874903e+01
-4.874669e+01
-4.874421e+01
-4.874159e+01
-4.873883e+01
-4.873594e+01
-4.873292e+01
-4.872977e+01
-4.872649e+01
-4.872308e+01
-4.871955e+01
-4.871589e+01
-4.871210e+01
-4.870820e+01
-4.870417e+01
-4.870003e+01
-4.869576e+01
-4.869138e+01
-4.868688e+01
-4.868227e+01
-4.867754e+01
-4.867270e+01
-4.866775e+01
-4.866269e+01
-4.865752e+01
-4.865224e+01
-4.864686e+01
-4.864136e+01
-4.863577e+01
-4.863006e+01
-4.862426e+01
-4.861835e+01
-4.861234e+01
-4.860623e+01
-4.860001e+01
-4.859370e+01
-4.858729e+01
-4.858079e+01
-4.857418e+01
-4.856748e+01
-4.856069e+01
-4.855380e+01
-4.854681e+01
-4.853974e+01
-4.853257e+01
-4.852531e+01
-4.851795e+01
-4.851051e+01
-4.850298e+01
-4.849536e+01
-4.848765e+01
-4.847986e+01
-4.847197e+01
-4.846400e+01
-4.845595e+01
-4.844781e+01
-4.843959e+01
-4.843128e+01
-4.842289e+01
-4.841442e+01
-4.840587e+01
-4.839723e+01
-4.838851e+01
-4.837972e+01
-4.837085e+01
-4.836189e+01
-4.835286e+01
-4.834375e+01
-4.833457e+01
-4.832531e+01
-4.831597e+01
-4.830656e+01
-4.829707e+01
-4.828751e+01
-4.827787e+01
-4.826816e+01
-4.825838e+01
-4.824853e+01
-4.823861e+01
-4.822861e+01
-4.821855e+01
-4.820842e+01
-4.819821e+01
-4.818794e+01
-4.817760e+01
-4.816720e+01
-4.815672e+01
-4.814618e+01
-4.813558e+01
-4.812491e+01
-4.811417e+01
-4.810337e+01
-4.809251e+01
-4.808158e+01
-4.807059e+01
-4.805954e+01
-4.804843e+01
-4.803725e+01
-4.802602e+01
-4.801472e+01
-4.800337e+01
-4.799196e+01
-4.798048e+01
-4.796896e+01
-4.795737e+01
-4.794572e+01
-4.793402e+01
-4.792226e+01
-4.791045e+01
-4.789859e+01
-4.788666e+01
-4.787469e+01
-4.786266e+01
-4.785057e+01
-4.783844e+01
-4.782625e+01
-4.781401e+01
-4.780172e+01
-4.778938e+01
-4.777699e+01
-4.776455e+01
-4.775207e+01
-4.773953e+01
-4.772694e+01
-4.771431e+01
-4.770163e+01
-4.768890e+01
-4.767613e+01
-4.766331e+01
-4.765045e+01
-4.763754e+01
-4.762459e+01
-4.761159e+01
-4.759855e+01
-4.758547e+01
-4.757234e+01
-4.755917e+01
-4.754596e+01
-4.753271e+01
-4.751942e+01
-4.750609e+01
-4.749272e+01
-4.747932e+01
-4.746587e+01
-4.745238e+01
-4.743886e+01
-4.742530e+01
-4.741170e+01
-4.739807e+01
-4.738440e+01
-4.737069e+01
-4.735695e+01
-4.734318e+01
-4.732937e+01
-4.731553e+01
-4.730165e+01
-4.728774e+01
-4.727380e+01
-4.725983e+01
-4.724583e+01
-4.723179e+01
-4.721773e+01
-4.720363e+01
-4.718951e+01
-4.717535e+01
-4.716117e+01
-4.714696e+01
-4.713272e+01
-4.711846e+01
-4.710417e+01
-4.708985e+01
-4.707550e+01
-4.706113e+01
-4.704673e+01
-4.703231e+01
-4.701787e+01
-4.700340e+01
-4.698891e+01
-4.697439e+01
-4.695985e+01
-4.694529e+01
-4.693071e+01
-4.691611e+01
-4.690148e+01
-4.688684e+01
-4.687217e+01
-4.685749e+01
-4.684279e+01
-4.682806e+01
-4.681332e+01
-4.679857e+01
-4.678379e+01
-4.676900e+01
-4.675419e+01
-4.673936e+01
-4.672452e+01
-4.670966e+01
-4.669479e+01
-4.667991e+01
-4.666500e+01
-4.665009e+01
-4.663516e+01
-4.662022e+01
-4.660527e+01
-4.659030e+01
-4.657533e+01
-4.656034e+01
-4.654534e+01
-4.653033e+01
-4.651531e+01
-4.650029e+01
-4.648525e+01
-4.647020e+01
-4.645515e+01
-4.644008e+01
-4.642501e+01
-4.640994e+01
-4.639485e+01
-4.637976e+01
-4.636467e+01
-4.634957e+01
-4.633446e+01
-4.631935e+01
-4.630423e+01
-4.628911e+01
-4.627399e+01
-4.625887e+01
-4.624374e+01
-4.622861e+01
-4.621347e+01
-4.619834e+01
-4.618321e+01
-4.616807e+01
-4.615294e+01
-4.613780e+01
-4.612267e+01
-4.610754e+01
-4.609240e+01
-4.607727e+01
-4.606215e+01
-4.604702e+01
-4.603190e+01
-4.601678e+01
-4.600167e+01
-4.598656e+01
-4.597146e+01
-4.595636e+01
-4.594126e+01
-4.592618e+01
-4.591110e+01
-4.589602e+01
-4.588095e+01
-4.586590e+01
-4.585084e+01
-4.583580e+01
-4.582077e+01
-4.580574e+01
-4.579073e+01
-4.577572e+01
-4.576073e+01
-4.574575e+01
-4.573078e+01
-4.571582e+01
-4.570087e+01
-4.568594e+01
-4.567102e+01
-4.565611e+01
-4.564121e+01
-4.562634e+01
-4.561147e+01
-4.559662e+01
-4.558179e+01
-4.556697e+01
-4.555217e+01
-4.553739e+01
-4.552262e+01
-4.550787e+01
-4.549314e+01
-4.547843e+01
-4.546374e+01
-4.544906e+01
-4.543441e+01
-4.541978e+01
-4.540517e+01
-4.539058e+01
-4.537601e+01
-4.536146e+01
-4.534694e+01
-4.533244e+01
-4.531796e+01
-4.530351e+01
-4.528908e+01
-4.527467e+01
-4.526030e+01
-4.524594e+01
-4.523162e+01
-4.521732e+01
-4.520304e+01
-4.518880e+01
-4.517458e+01
-4.516039e+01
-4.514623e+01
-4.513210e+01
-4.511800e+01
-4.510393e+01
-4.508989e+01
-4.507588e+01
-4.506190e+01
-4.504796e+01
-4.503404e+01
-4.502016e+01
-4.500632e+01
-4.499251e+01
-4.497873e+01
-4.496499e+01
-4.495128e+01
-4.493761e+01
-4.492398e+01
-4.491038e+01
-4.489682e+01
-4.488330e+01
-4.486981e+01
-4.485637e+01
-4.484296e+01
-4.482959e+01
-4.481627e+01
-4.480298e+01
-4.478974e+01
-4.477653e+01
-4.476337e+01
-4.475026e+01
-4.473718e+01
-4.472415e+01
-4.471116e+01
-4.469822e+01
-4.468532e+01
-4.467247e+01
-4.465967e+01
-4.464691e+01
-4.463420e+01
-4.462154e+01
-4.460892e+01
-4.459636e+01
-4.458384e+01
-4.457137e+01
-4.455896e+01
-4.454659e+01
-4.453428e+01
-4.452201e+01
-4.450980e+01
-4.449765e+01
-4.448554e+01
-4.447349e+01
-4.446150e+01
-4.444955e+01
-4.443767e+01
-4.442584e+01
-4.441407e+01
-4.440235e+01
-4.439069e+01
-4.437910e+01
-4.436755e+01
-4.435607e+01
-4.434465e+01
-4.433329e+01
-4.432199e+01
-4.431075e+01
-4.429957e+01
-4.428845e+01
-4.427740e+01
-4.426641e+01
-4.425549e+01
-4.424463e+01
-4.423383e+01
-4.422310e+01
-4.421244e+01
-4.420184e+01
-4.419132e+01
-4.418085e+01
-4.417046e+01
-4.416014e+01
-4.414988e+01
-4.413970e+01
-4.412959e+01
-4.411954e+01
-4.410957e+01
-4.409967e+01
-4.408985e+01
-4.408010e+01
-4.407042e+01
-4.406082e+01
-4.405129e+01
-4.404183e+01
-4.403246e+01
-4.402316e+01
-4.401394e+01
-4.400479e+01
-4.399572e+01
-4.398673e+01
-4.397783e+01
-4.396900e+01
-4.396025e+01
-4.395158e+01
-4.394300e+01
-4.393449e+01
-4.392607e+01
-4.391774e+01
-4.390948e+01
-4.390131e+01
-4.389323e+01
-4.388523e+01
-4.387732e+01
-4.386949e+01
-4.386175e+01
-4.385410e+01
-4.384654e+01
-4.383906e+01
-4.383168e+01
-4.382438e+01
-4.381717e+01
-4.381006e+01
-4.380304e+01
-4.379610e+01
-4.378927e+01
-4.378252e+01
-4.377587e+01
-4.376931e+01
-4.376284e+01
-4.375647e+01
-4.375020e+01
-4.374402e+01
-4.373794e+01
-4.373195e+01
-4.372606e+01
-4.372027e+01
-4.371458e+01
-4.370899e+01
-4.370349e+01
-4.369810e+01
-4.369281e+01
-4.368761e+01
-4.368252e+01
-4.367753e+01
-4.367264e+01
-4.366786e+01
-4.366318e+01
-4.365860e+01
-4.365412e+01
-4.364975e+01
-4.364548e+01
-4.364132e+01
-4.363726e+01
-4.363331e+01
-4.362947e+01
-4.362573e+01
-4.362210e+01
-4.361857e+01
-4.361516e+01
-4.361185e+01
-4.360865e+01
-4.360556e+01
-4.360258e+01
-4.359970e+01
-4.359694e+01
-4.359428e+01
-4.359174e+01
-4.358931e+01
-4.358699e+01
-4.358478e+01
-4.358268e+01
-4.358069e+01
-4.357881e+01
-4.357705e+01
-4.357540e+01
-4.357386e+01
-4.357244e+01
-4.357113e+01
-4.356994e+01
-4.356887e+01
-4.356791e+01
-4.356706e+01
-4.356634e+01
-4.356574e+01
-4.356525e+01
-4.356489e+01
-4.356464e+01
-4.356452e+01
