# vtk DataFile Version 3.0
Monodomain MVF
ASCII
DATASET POLYDATA
POINTS 501 float
0.000000e+00 0.000000e+00 0.000000e+00
1.000000e-02 0.000000e+00 0.000000e+00
2.000000e-02 0.000000e+00 0.000000e+00
3.000000e-02 0.000000e+00 0.000000e+00
4.000000e-02 0.000000e+00 0.000000e+00
5.000000e-02 0.000000e+00 0.000000e+00
6.000000e-02 0.000000e+00 0.000000e+00
7.000000e-02 0.000000e+00 0.000000e+00
8.000000e-02 0.000000e+00 0.000000e+00
9.000000e-02 0.000000e+00 0.000000e+00
1.000000e-01 0.000000e+00 0.000000e+00
1.100000e-01 0.000000e+00 0.000000e+00
1.200000e-01 0.000000e+00 0.000000e+00
1.300000e-01 0.000000e+00 0.000000e+00
1.400000e-01 0.000000e+00 0.000000e+00
1.500000e-01 0.000000e+00 0.000000e+00
1.600000e-01 0.000000e+00 0.000000e+00
1.700000e-01 0.000000e+00 0.000000e+00
1.800000e-01 0.000000e+00 0.000000e+00
1.900000e-01 0.000000e+00 0.000000e+00
2.000000e-01 0.000000e+00 0.000000e+00
2.100000e-01 0.000000e+00 0.000000e+00
2.200000e-01 0.000000e+00 0.000000e+00
2.300000e-01 0.000000e+00 0.000000e+00
2.400000e-01 0.000000e+00 0.000000e+00
2.500000e-01 0.000000e+00 0.000000e+00
2.600000e-01 0.000000e+00 0.000000e+00
2.700000e-01 0.000000e+00 0.000000e+00
2.800000e-01 0.000000e+00 0.000000e+00
2.900000e-01 0.000000e+00 0.000000e+00
3.000000e-01 0.000000e+00 0.000000e+00
3.100000e-01 0.000000e+00 0.000000e+00
3.200000e-01 0.000000e+00 0.000000e+00
3.300000e-01 0.000000e+00 0.000000e+00
3.400000e-01 0.000000e+00 0.000000e+00
3.500000e-01 0.000000e+00 0.000000e+00
3.600000e-01 0.000000e+00 0.000000e+00
3.700000e-01 0.000000e+00 0.000000e+00
3.800000e-01 0.000000e+00 0.000000e+00
3.900000e-01 0.000000e+00 0.000000e+00
4.000000e-01 0.000000e+00 0.000000e+00
4.100000e-01 0.000000e+00 0.000000e+00
4.200000e-01 0.000000e+00 0.000000e+00
4.300000e-01 0.000000e+00 0.000000e+00
4.400000e-01 0.000000e+00 0.000000e+00
4.500000e-01 0.000000e+00 0.000000e+00
4.600000e-01 0.000000e+00 0.000000e+00
4.700000e-01 0.000000e+00 0.000000e+00
4.800000e-01 0.000000e+00 0.000000e+00
4.900000e-01 0.000000e+00 0.000000e+00
5.000000e-01 0.000000e+00 0.000000e+00
5.100000e-01 0.000000e+00 0.000000e+00
5.200000e-01 0.000000e+00 0.000000e+00
5.300000e-01 0.000000e+00 0.000000e+00
5.400000e-01 0.000000e+00 0.000000e+00
5.500000e-01 0.000000e+00 0.000000e+00
5.600000e-01 0.000000e+00 0.000000e+00
5.700000e-01 0.000000e+00 0.000000e+00
5.800000e-01 0.000000e+00 0.000000e+00
5.900000e-01 0.000000e+00 0.000000e+00
6.000000e-01 0.000000e+00 0.000000e+00
6.100000e-01 0.000000e+00 0.000000e+00
6.200000e-01 0.000000e+00 0.000000e+00
6.300000e-01 0.000000e+00 0.000000e+00
6.400000e-01 0.000000e+00 0.000000e+00
6.500000e-01 0.000000e+00 0.000000e+00
6.600000e-01 0.000000e+00 0.000000e+00
6.700000e-01 0.000000e+00 0.000000e+00
6.800000e-01 0.000000e+00 0.000000e+00
6.900000e-01 0.000000e+00 0.000000e+00
7.000000e-01 0.000000e+00 0.000000e+00
7.100000e-01 0.000000e+00 0.000000e+00
7.200000e-01 0.000000e+00 0.000000e+00
7.300000e-01 0.000000e+00 0.000000e+00
7.400000e-01 0.000000e+00 0.000000e+00
7.500000e-01 0.000000e+00 0.000000e+00
7.600000e-01 0.000000e+00 0.000000e+00
7.700000e-01 0.000000e+00 0.000000e+00
7.800000e-01 0.000000e+00 0.000000e+00
7.900000e-01 0.000000e+00 0.000000e+00
8.000000e-01 0.000000e+00 0.000000e+00
8.100000e-01 0.000000e+00 0.000000e+00
8.200000e-01 0.000000e+00 0.000000e+00
8.300000e-01 0.000000e+00 0.000000e+00
8.400000e-01 0.000000e+00 0.000000e+00
8.500000e-01 0.000000e+00 0.000000e+00
8.600000e-01 0.000000e+00 0.000000e+00
8.700000e-01 0.000000e+00 0.000000e+00
8.800000e-01 0.000000e+00 0.000000e+00
8.900000e-01 0.000000e+00 0.000000e+00
9.000000e-01 0.000000e+00 0.000000e+00
9.100000e-01 0.000000e+00 0.000000e+00
9.200000e-01 0.000000e+00 0.000000e+00
9.300000e-01 0.000000e+00 0.000000e+00
9.400000e-01 0.000000e+00 0.000000e+00
9.500000e-01 0.000000e+00 0.000000e+00
9.600000e-01 0.000000e+00 0.000000e+00
9.700000e-01 0.000000e+00 0.000000e+00
9.800000e-01 0.000000e+00 0.000000e+00
9.900000e-01 0.000000e+00 0.000000e+00
1.000000e+00 0.000000e+00 0.000000e+00
1.010000e+00 0.000000e+00 0.000000e+00
1.020000e+00 0.000000e+00 0.000000e+00
1.030000e+00 0.000000e+00 0.000000e+00
1.040000e+00 0.000000e+00 0.000000e+00
1.050000e+00 0.000000e+00 0.000000e+00
1.060000e+00 0.000000e+00 0.000000e+00
1.070000e+00 0.000000e+00 0.000000e+00
1.080000e+00 0.000000e+00 0.000000e+00
1.090000e+00 0.000000e+00 0.000000e+00
1.100000e+00 0.000000e+00 0.000000e+00
1.110000e+00 0.000000e+00 0.000000e+00
1.120000e+00 0.000000e+00 0.000000e+00
1.130000e+00 0.000000e+00 0.000000e+00
1.140000e+00 0.000000e+00 0.000000e+00
1.150000e+00 0.000000e+00 0.000000e+00
1.160000e+00 0.000000e+00 0.000000e+00
1.170000e+00 0.000000e+00 0.000000e+00
1.180000e+00 0.000000e+00 0.000000e+00
1.190000e+00 0.000000e+00 0.000000e+00
1.200000e+00 0.000000e+00 0.000000e+00
1.210000e+00 0.000000e+00 0.000000e+00
1.220000e+00 0.000000e+00 0.000000e+00
1.230000e+00 0.000000e+00 0.000000e+00
1.240000e+00 0.000000e+00 0.000000e+00
1.250000e+00 0.000000e+00 0.000000e+00
1.260000e+00 0.000000e+00 0.000000e+00
1.270000e+00 0.000000e+00 0.000000e+00
1.280000e+00 0.000000e+00 0.000000e+00
1.290000e+00 0.000000e+00 0.000000e+00
1.300000e+00 0.000000e+00 0.000000e+00
1.310000e+00 0.000000e+00 0.000000e+00
1.320000e+00 0.000000e+00 0.000000e+00
1.330000e+00 0.000000e+00 0.000000e+00
1.340000e+00 0.000000e+00 0.000000e+00
1.350000e+00 0.000000e+00 0.000000e+00
1.360000e+00 0.000000e+00 0.000000e+00
1.370000e+00 0.000000e+00 0.000000e+00
1.380000e+00 0.000000e+00 0.000000e+00
1.390000e+00 0.000000e+00 0.000000e+00
1.400000e+00 0.000000e+00 0.000000e+00
1.410000e+00 0.000000e+00 0.000000e+00
1.420000e+00 0.000000e+00 0.000000e+00
1.430000e+00 0.000000e+00 0.000000e+00
1.440000e+00 0.000000e+00 0.000000e+00
1.450000e+00 0.000000e+00 0.000000e+00
1.460000e+00 0.000000e+00 0.000000e+00
1.470000e+00 0.000000e+00 0.000000e+00
1.480000e+00 0.000000e+00 0.000000e+00
1.490000e+00 0.000000e+00 0.000000e+00
1.500000e+00 0.000000e+00 0.000000e+00
1.510000e+00 0.000000e+00 0.000000e+00
1.520000e+00 0.000000e+00 0.000000e+00
1.530000e+00 0.000000e+00 0.000000e+00
1.540000e+00 0.000000e+00 0.000000e+00
1.550000e+00 0.000000e+00 0.000000e+00
1.560000e+00 0.000000e+00 0.000000e+00
1.570000e+00 0.000000e+00 0.000000e+00
1.580000e+00 0.000000e+00 0.000000e+00
1.590000e+00 0.000000e+00 0.000000e+00
1.600000e+00 0.000000e+00 0.000000e+00
1.610000e+00 0.000000e+00 0.000000e+00
1.620000e+00 0.000000e+00 0.000000e+00
1.630000e+00 0.000000e+00 0.000000e+00
1.640000e+00 0.000000e+00 0.000000e+00
1.650000e+00 0.000000e+00 0.000000e+00
1.660000e+00 0.000000e+00 0.000000e+00
1.670000e+00 0.000000e+00 0.000000e+00
1.680000e+00 0.000000e+00 0.000000e+00
1.690000e+00 0.000000e+00 0.000000e+00
1.700000e+00 0.000000e+00 0.000000e+00
1.710000e+00 0.000000e+00 0.000000e+00
1.720000e+00 0.000000e+00 0.000000e+00
1.730000e+00 0.000000e+00 0.000000e+00
1.740000e+00 0.000000e+00 0.000000e+00
1.750000e+00 0.000000e+00 0.000000e+00
1.760000e+00 0.000000e+00 0.000000e+00
1.770000e+00 0.000000e+00 0.000000e+00
1.780000e+00 0.000000e+00 0.000000e+00
1.790000e+00 0.000000e+00 0.000000e+00
1.800000e+00 0.000000e+00 0.000000e+00
1.810000e+00 0.000000e+00 0.000000e+00
1.820000e+00 0.000000e+00 0.000000e+00
1.830000e+00 0.000000e+00 0.000000e+00
1.840000e+00 0.000000e+00 0.000000e+00
1.850000e+00 0.000000e+00 0.000000e+00
1.860000e+00 0.000000e+00 0.000000e+00
1.870000e+00 0.000000e+00 0.000000e+00
1.880000e+00 0.000000e+00 0.000000e+00
1.890000e+00 0.000000e+00 0.000000e+00
1.900000e+00 0.000000e+00 0.000000e+00
1.910000e+00 0.000000e+00 0.000000e+00
1.920000e+00 0.000000e+00 0.000000e+00
1.930000e+00 0.000000e+00 0.000000e+00
1.940000e+00 0.000000e+00 0.000000e+00
1.950000e+00 0.000000e+00 0.000000e+00
1.960000e+00 0.000000e+00 0.000000e+00
1.970000e+00 0.000000e+00 0.000000e+00
1.980000e+00 0.000000e+00 0.000000e+00
1.990000e+00 0.000000e+00 0.000000e+00
2.000000e+00 0.000000e+00 0.000000e+00
2.010000e+00 0.000000e+00 0.000000e+00
2.020000e+00 0.000000e+00 0.000000e+00
2.030000e+00 0.000000e+00 0.000000e+00
2.040000e+00 0.000000e+00 0.000000e+00
2.050000e+00 0.000000e+00 0.000000e+00
2.060000e+00 0.000000e+00 0.000000e+00
2.070000e+00 0.000000e+00 0.000000e+00
2.080000e+00 0.000000e+00 0.000000e+00
2.090000e+00 0.000000e+00 0.000000e+00
2.100000e+00 0.000000e+00 0.000000e+00
2.110000e+00 0.000000e+00 0.000000e+00
2.120000e+00 0.000000e+00 0.000000e+00
2.130000e+00 0.000000e+00 0.000000e+00
2.140000e+00 0.000000e+00 0.000000e+00
2.150000e+00 0.000000e+00 0.000000e+00
2.160000e+00 0.000000e+00 0.000000e+00
2.170000e+00 0.000000e+00 0.000000e+00
2.180000e+00 0.000000e+00 0.000000e+00
2.190000e+00 0.000000e+00 0.000000e+00
2.200000e+00 0.000000e+00 0.000000e+00
2.210000e+00 0.000000e+00 0.000000e+00
2.220000e+00 0.000000e+00 0.000000e+00
2.230000e+00 0.000000e+00 0.000000e+00
2.240000e+00 0.000000e+00 0.000000e+00
2.250000e+00 0.000000e+00 0.000000e+00
2.260000e+00 0.000000e+00 0.000000e+00
2.270000e+00 0.000000e+00 0.000000e+00
2.280000e+00 0.000000e+00 0.000000e+00
2.290000e+00 0.000000e+00 0.000000e+00
2.300000e+00 0.000000e+00 0.000000e+00
2.310000e+00 0.000000e+00 0.000000e+00
2.320000e+00 0.000000e+00 0.000000e+00
2.330000e+00 0.000000e+00 0.000000e+00
2.340000e+00 0.000000e+00 0.000000e+00
2.350000e+00 0.000000e+00 0.000000e+00
2.360000e+00 0.000000e+00 0.000000e+00
2.370000e+00 0.000000e+00 0.000000e+00
2.380000e+00 0.000000e+00 0.000000e+00
2.390000e+00 0.000000e+00 0.000000e+00
2.400000e+00 0.000000e+00 0.000000e+00
2.410000e+00 0.000000e+00 0.000000e+00
2.420000e+00 0.000000e+00 0.000000e+00
2.430000e+00 0.000000e+00 0.000000e+00
2.440000e+00 0.000000e+00 0.000000e+00
2.450000e+00 0.000000e+00 0.000000e+00
2.460000e+00 0.000000e+00 0.000000e+00
2.470000e+00 0.000000e+00 0.000000e+00
2.480000e+00 0.000000e+00 0.000000e+00
2.490000e+00 0.000000e+00 0.000000e+00
2.500000e+00 0.000000e+00 0.000000e+00
2.510000e+00 0.000000e+00 0.000000e+00
2.520000e+00 0.000000e+00 0.000000e+00
2.530000e+00 0.000000e+00 0.000000e+00
[...]
POINT_DATA 501
SCALARS vm float 1
LOOKUP_TABLE default
-8.444287e+01
-8.444286e+01
-8.444284e+01
-8.444281e+01
-8.444277e+01
-8.444264e+01
-8.444259e+01
-8.444254e+01
-8.444248e+01
-8.444243e+01
-8.444237e+01
-8.444231e+01
-8.444224e+01
-8.444218e+01
-8.444211e+01
-8.444205e+01
-8.444198e+01
-8.444191e+01
-8.444184e+01
-8.444177e+01
-8.444170e+01
-8.444163e+01
-8.444156e+01
-8.444149e+01
-8.444141e+01
-8.444134e+01
-8.444127e+01
-8.444120e+01
-8.444113e+01
-8.444105e+01
-8.444098e+01
-8.444091e+01
-8.444084e+01
-8.444076e+01
-8.444069e+01
-8.444062e+01
-8.444055e+01
-8.444048e+01
-8.444041e+01
-8.444034e+01
-8.444027e+01
-8.444020e+01
-8.444013e+01
-8.444007e+01
-8.444000e+01
-8.443993e+01
-8.443987e+01
-8.443980e+01
-8.443974e+01
-8.443967e+01
-8.443961e+01
-8.443954e+01
-8.443948e+01
-8.443942e+01
-8.443936e+01
-8.443930e+01
-8.443924e+01
-8.443918e+01
-8.443912e+01
-8.443906e+01
-8.443900e+01
-8.443895e+01
-8.443889e+01
-8.443883e+01
-8.443878e+01
-8.443872e+01
-8.443867e+01
-8.443862e+01
-8.443857e+01
-8.443851e+01
-8.443846e+01
-8.443841e+01
-8.443836e+01
-8.443831e+01
-8.443826e+01
-8.443821e+01
-8.443817e+01
-8.443812e+01
-8.443807e+01
-8.443803e+01
-8.443798e+01
-8.443794e+01
-8.443789e+01
-8.443785e+01
-8.443781e+01
-8.443776e+01
-8.443772e+01
-8.443768e+01
-8.443764e+01
-8.443760e+01
-8.443756e+01
-8.443752e+01
-8.443748e+01
-8.443744e+01
-8.443741e+01
-8.443737e+01
-8.443733e+01
-8.443730e+01
-8.443726e+01
-8.443723e+01
-8.443719e+01
-8.443716e+01
-8.443712e+01
-8.443709e+01
-8.443706e+01
-8.443702e+01
-8.443699e+01
-8.443696e+01
-8.443693e+01
-8.443690e+01
-8.443687e+01
-8.443684e+01
-8.443681e+01
-8.443678e+01
-8.443675e+01
-8.443672e+01
-8.443670e+01
-8.443667e+01
-8.443664e+01
-8.443662e+01
-8.443659e+01
-8.443656e+01
-8.443654e+01
-8.443651e+01
-8.443649e+01
-8.443646e+01
-8.443644e+01
-8.443641e+01
-8.443639e+01
-8.443637e+01
-8.443635e+01
-8.443632e+01
-8.443630e+01
-8.443628e+01
-8.443626e+01
-8.443624e+01
-8.443622e+01
-8.443619e+01
-8.443617e+01
-8.443615e+01
-8.443613e+01
-8.443611e+01
-8.443610e+01
-8.443608e+01
-8.443606e+01
-8.443604e+01
-8.443602e+01
-8.443600e+01
-8.443598e+01
-8.443597e+01
-8.443595e+01
-8.443593e+01
-8.443592e+01
-8.443590e+01
-8.443588e+01
-8.443587e+01
-8.443585e+01
-8.443584e+01
-8.443582e+01
-8.443581e+01
-8.443579e+01
-8.443578e+01
-8.443576e+01
-8.443575e+01
-8.443573e+01
-8.443572e+01
-8.443571e+01
-8.443569e+01
-8.443568e+01
-8.443567e+01
-8.443565e+01
-8.443564e+01
-8.443563e+01
-8.443562e+01
-8.443560e+01
-8.443559e+01
-8.443558e+01
-8.443557e+01
-8.443556e+01
-8.443555e+01
-8.443553e+01
-8.443552e+01
-8.443551e+01
-8.443550e+01
-8.443549e+01
-8.443548e+01
-8.443547e+01
-8.443546e+01
-8.443545e+01
-8.443544e+01
-8.443543e+01
-8.443542e+01
-8.443541e+01
-8.443540e+01
-8.443539e+01
-8.443538e+01
-8.443538e+01
-8.443537e+01
-8.443536e+01
-8.443535e+01
-8.443534e+01
-8.443533e+01
-8.443532e+01
-8.443532e+01
-8.443531e+01
-8.443530e+01
-8.443529e+01
-8.443528e+01
-8.443528e+01
-8.443527e+01
-8.443526e+01
-8.443525e+01
-8.443525e+01
-8.443524e+01
-8.443523e+01
-8.443523e+01
-8.443522e+01
-8.443521e+01
-8.443521e+01
-8.443520e+01
-8.443519e+01
-8.443519e+01
-8.443518e+01
-8.443517e+01
-8.443517e+01
-8.443516e+01
-8.443515e+01
-8.443515e+01
-8.443514e+01
-8.443514e+01
-8.443513e+01
-8.443512e+01
-8.443512e+01
-8.443511e+01
-8.443511e+01
-8.443510e+01
-8.443509e+01
-8.443509e+01
-8.443508e+01
-8.443508e+01
-8.443507e+01
-8.443507e+01
-8.443506e+01
-8.443505e+01
-8.443505e+01
-8.443504e+01
-8.443504e+01
-8.443503e+01
-8.443503e+01
-8.443502e+01
-8.443502e+01
-8.443501e+01
-8.443501e+01
-8.443500e+01
-8.443500e+01
-8.443499e+01
-8.443498e+01
-8.443498e+01
-8.443497e+01
-8.443497e+01
-8.443496e+01
-8.443496e+01
-8.443495e+01
-8.443495e+01
-8.443494e+01
-8.443494e+01
-8.443493e+01
-8.443493e+01
-8.443492e+01
-8.443492e+01
-8.443491e+01
-8.443491e+01
-8.443490e+01
-8.443489e+01
-8.443489e+01
-8.443488e+01
-8.443488e+01
-8.443487e+01
-8.443487e+01
-8.443486e+01
-8.443485e+01
-8.443485e+01
-8.443484e+01
-8.443484e+01
-8.443483e+01
-8.443483e+01
-8.443482e+01
-8.443481e+01
-8.443481e+01
-8.443480e+01
-8.443480e+01
-8.443479e+01
-8.443478e+01
-8.443478e+01
-8.443477e+01
-8.443476e+01
-8.443476e+01
-8.443475e+01
-8.443474e+01
-8.443474e+01
-8.443473e+01
-8.443472e+01
-8.443472e+01
-8.443471e+01
-8.443470e+01
-8.443469e+01
-8.443469e+01
-8.443468e+01
-8.443467e+01
-8.443466e+01
-8.443466e+01
-8.443465e+01
-8.443464e+01
-8.443463e+01
-8.443462e+01
-8.443462e+01
-8.443461e+01
-8.443460e+01
-8.443459e+01
-8.443458e+01
-8.443457e+01
-8.443456e+01
-8.443456e+01
-8.443455e+01
-8.443454e+01
-8.443453e+01
-8.443452e+01
-8.443451e+01
-8.443450e+01
-8.443449e+01
-8.443448e+01
-8.443447e+01
-8.443446e+01
-8.443445e+01
-8.443444e+01
-8.443443e+01
-8.443442e+01
-8.443441e+01
-8.443439e+01
-8.443438e+01
-8.443437e+01
-8.443436e+01
-8.443435e+01
-8.443434e+01
-8.443433e+01
-8.443431e+01
-8.443430e+01
-8.443429e+01
-8.443428e+01
-8.443426e+01
-8.443425e+01
-8.443424e+01
-8.443422e+01
-8.443421e+01
-8.443420e+01
-8.443418e+01
-8.443417e+01
-8.443415e+01
-8.443414e+01
-8.443413e+01
-8.443411e+01
-8.443410e+01
-8.443408e+01
-8.443407e+01
-8.443405e+01
-8.443404e+01
-8.443402e+01
-8.443400e+01
-8.443399e+01
-8.443397e+01
-8.443396e+01
-8.443394e+01
-8.443392e+01
-8.443391e+01
-8.443389e+01
-8.443387e+01
-8.443385e+01
-8.443384e+01
-8.443382e+01
-8.443380e+01
-8.443378e+01
-8.443376e+01
-8.443374e+01
-8.443373e+01
-8.443371e+01
-8.443369e+01
-8.443367e+01
-8.443365e+01
-8.443363e+01
-8.443361e+01
-8.443359e+01
-8.443357e+01
-8.443355e+01
-8.443353e+01
-8.443351e+01
-8.443348e+01
-8.443346e+01
-8.443344e+01
-8.443342e+01
-8.443340e+01
-8.443338e+01
-8.443335e+01
-8.443333e+01
-8.443331e+01
-8.443329e+01
-8.443326e+01
-8.443324e+01
-8.443322e+01
-8.443319e+01
-8.443317e+01
-8.443315e+01
-8.443312e+01
-8.443310e+01
-8.443307e+01
-8.443305e+01
-8.443302e+01
-8.443300e+01
-8.443298e+01
-8.443295e+01
-8.443292e+01
-8.443290e+01
-8.443287e+01
-8.443285e+01
-8.443282e+01
-8.443280e+01
-8.443277e+01
-8.443275e+01
-8.443272e+01
-8.443269e+01
-8.443267e+01
-8.443264e+01
-8.443261e+01
-8.443259e+01
-8.443256e+01
-8.443253e+01
-8.443251e+01
-8.443248e+01
-8.443245e+01
-8.443243e+01
-8.443240e+01
-8.443237e+01
-8.443235e+01
-8.443232e+01
-8.443229e+01
-8.443227e+01
-8.443224e+01
-8.443221e+01
-8.443219e+01
-8.443216e+01
-8.443213e+01
-8.443211e+01
-8.443208e+01
-8.443206e+01
-8.443203e+01
-8.443200e+01
-8.443198e+01
-8.443195e+01
-8.443193e+01
-8.443190e+01
-8.443188e+01
-8.443185e+01
-8.443183e+01
-8.443180e+01
-8.443178e+01
-8.443175e+01
-8.443173e+01
-8.443171e+01
-8.443168e+01
-8.443166e+01
-8.443164e+01
-8.443162e+01
-8.443160e+01
-8.443157e+01
-8.443155e+01
-8.443153e+01
-8.443151e+01
-8.443149e+01
-8.443147e+01
-8.443145e+01
-8.443144e+01
-8.443142e+01
-8.443140e+01
-8.443138e+01
-8.443137e+01
-8.443135e+01
-8.443133e+01
-8.443132e+01
-8.443130e+01
-8.443129e+01
-8.443128e+01
-8.443126e+01
-8.443125e+01
-8.443124e+01
-8.443123e+01
-8.443121e+01
-8.443120e+01
-8.443120e+01
-8.443119e+01
-8.443118e+01
-8.443118e+01
-8.443118e+01
