# vtk DataFile Version 3.0
Monodomain MVF
ASCII
DATASET POLYDATA
POINTS 501 float
0.000000e+00 0.000000e+00 0.000000e+00
1.000000e-02 0.000000e+00 0.000000e+00
2.000000e-02 0.000000e+00 0.000000e+00
3.000000e-02 0.000000e+00 0.000000e+00
4.000000e-02 0.000000e+00 0.000000e+00
5.000000e-02 0.000000e+00 0.000000e+00
6.000000e-02 0.000000e+00 0.000000e+00
7.000000e-02 0.000000e+00 0.000000e+00
8.000000e-02 0.000000e+00 0.000000e+00
9.000000e-02 0.000000e+00 0.000000e+00
1.000000e-01 0.000000e+00 0.000000e+00
1.100000e-01 0.000000e+00 0.000000e+00
1.200000e-01 0.000000e+00 0.000000e+00
1.300000e-01 0.000000e+00 0.000000e+00
1.400000e-01 0.000000e+00 0.000000e+00
1.500000e-01 0.000000e+00 0.000000e+00
1.600000e-01 0.000000e+00 0.000000e+00
1.700000e-01 0.000000e+00 0.000000e+00
1.800000e-01 0.000000e+00 0.000000e+00
1.900000e-01 0.000000e+00 0.000000e+00
2.000000e-01 0.000000e+00 0.000000e+00
2.100000e-01 0.000000e+00 0.000000e+00
2.200000e-01 0.000000e+00 0.000000e+00
2.300000e-01 0.000000e+00 0.000000e+00
2.400000e-01 0.000000e+00 0.000000e+00
2.500000e-01 0.000000e+00 0.000000e+00
2.600000e-01 0.000000e+00 0.000000e+00
2.700000e-01 0.000000e+00 0.000000e+00
2.800000e-01 0.000000e+00 0.000000e+00
2.900000e-01 0.000000e+00 0.000000e+00
3.000000e-01 0.000000e+00 0.000000e+00
3.100000e-01 0.000000e+00 0.000000e+00
3.200000e-01 0.000000e+00 0.000000e+00
3.300000e-01 0.000000e+00 0.000000e+00
3.400000e-01 0.000000e+00 0.000000e+00
3.500000e-01 0.000000e+00 0.000000e+00
3.600000e-01 0.000000e+00 0.000000e+00
3.700000e-01 0.000000e+00 0.000000e+00
3.800000e-01 0.000000e+00 0.000000e+00
3.900000e-01 0.000000e+00 0.000000e+00
4.000000e-01 0.000000e+00 0.000000e+00
4.100000e-01 0.000000e+00 0.000000e+00
4.200000e-01 0.000000e+00 0.000000e+00
4.300000e-01 0.000000e+00 0.000000e+00
4.400000e-01 0.000000e+00 0.000000e+00
4.500000e-01 0.000000e+00 0.000000e+00
4.600000e-01 0.000000e+00 0.000000e+00
4.700000e-01 0.000000e+00 0.000000e+00
4.800000e-01 0.000000e+00 0.000000e+00
4.900000e-01 0.000000e+00 0.000000e+00
5.000000e-01 0.000000e+00 0.000000e+00
5.100000e-01 0.000000e+00 0.000000e+00
5.200000e-01 0.000000e+00 0.000000e+00
5.300000e-01 0.000000e+00 0.000000e+00
5.400000e-01 0.000000e+00 0.000000e+00
5.500000e-01 0.000000e+00 0.000000e+00
5.600000e-01 0.000000e+00 0.000000e+00
5.700000e-01 0.000000e+00 0.000000e+00
5.800000e-01 0.000000e+00 0.000000e+00
5.900000e-01 0.000000e+00 0.000000e+00
6.000000e-01 0.000000e+00 0.000000e+00
6.100000e-01 0.000000e+00 0.000000e+00
6.200000e-01 0.000000e+00 0.000000e+00
6.300000e-01 0.000000e+00 0.000000e+00
6.400000e-01 0.000000e+00 0.000000e+00
6.500000e-01 0.000000e+00 0.000000e+00
6.600000e-01 0.000000e+00 0.000000e+00
6.700000e-01 0.000000e+00 0.000000e+00
6.800000e-01 0.000000e+00 0.000000e+00
6.900000e-01 0.000000e+00 0.000000e+00
7.000000e-01 0.000000e+00 0.000000e+00
7.100000e-01 0.000000e+00 0.000000e+00
7.200000e-01 0.000000e+00 0.000000e+00
7.300000e-01 0.000000e+00 0.000000e+00
7.400000e-01 0.000000e+00 0.000000e+00
7.500000e-01 0.000000e+00 0.000000e+00
7.600000e-01 0.000000e+00 0.000000e+00
7.700000e-01 0.000000e+00 0.000000e+00
7.800000e-01 0.000000e+00 0.000000e+00
7.900000e-01 0.000000e+00 0.000000e+00
8.000000e-01 0.000000e+00 0.000000e+00
8.100000e-01 0.000000e+00 0.000000e+00
8.200000e-01 0.000000e+00 0.000000e+00
8.300000e-01 0.000000e+00 0.000000e+00
8.400000e-01 0.000000e+00 0.000000e+00
8.500000e-01 0.000000e+00 0.000000e+00
8.600000e-01 0.000000e+00 0.000000e+00
8.700000e-01 0.000000e+00 0.000000e+00
8.800000e-01 0.000000e+00 0.000000e+00
8.900000e-01 0.000000e+00 0.000000e+00
9.000000e-01 0.000000e+00 0.000000e+00
9.100000e-01 0.000000e+00 0.000000e+00
9.200000e-01 0.000000e+00 0.000000e+00
9.300000e-01 0.000000e+00 0.000000e+00
9.400000e-01 0.000000e+00 0.000000e+00
9.500000e-01 0.000000e+00 0.000000e+00
9.600000e-01 0.000000e+00 0.000000e+00
9.700000e-01 0.000000e+00 0.000000e+00
9.800000e-01 0.000000e+00 0.000000e+00
9.900000e-01 0.000000e+00 0.000000e+00
1.000000e+00 0.000000e+00 0.000000e+00
1.010000e+00 0.000000e+00 0.000000e+00
1.020000e+00 0.000000e+00 0.000000e+00
1.030000e+00 0.000000e+00 0.000000e+00
1.040000e+00 0.000000e+00 0.000000e+00
1.050000e+00 0.000000e+00 0.000000e+00
1.060000e+00 0.000000e+00 0.000000e+00
1.070000e+00 0.000000e+00 0.000000e+00
1.080000e+00 0.000000e+00 0.000000e+00
1.090000e+00 0.000000e+00 0.000000e+00
1.100000e+00 0.000000e+00 0.000000e+00
1.110000e+00 0.000000e+00 0.000000e+00
1.120000e+00 0.000000e+00 0.000000e+00
1.130000e+00 0.000000e+00 0.000000e+00
1.140000e+00 0.000000e+00 0.000000e+00
1.150000e+00 0.000000e+00 0.000000e+00
1.160000e+00 0.000000e+00 0.000000e+00
1.170000e+00 0.000000e+00 0.000000e+00
1.180000e+00 0.000000e+00 0.000000e+00
1.190000e+00 0.000000e+00 0.000000e+00
1.200000e+00 0.000000e+00 0.000000e+00
1.210000e+00 0.000000e+00 0.000000e+00
1.220000e+00 0.000000e+00 0.000000e+00
1.230000e+00 0.000000e+00 0.000000e+00
1.240000e+00 0.000000e+00 0.000000e+00
1.250000e+00 0.000000e+00 0.000000e+00
1.260000e+00 0.000000e+00 0.000000e+00
1.270000e+00 0.000000e+00 0.000000e+00
1.280000e+00 0.000000e+00 0.000000e+00
1.290000e+00 0.000000e+00 0.000000e+00
1.300000e+00 0.000000e+00 0.000000e+00
1.310000e+00 0.000000e+00 0.000000e+00
1.320000e+00 0.000000e+00 0.000000e+00
1.330000e+00 0.000000e+00 0.000000e+00
1.340000e+00 0.000000e+00 0.000000e+00
1.350000e+00 0.000000e+00 0.000000e+00
1.360000e+00 0.000000e+00 0.000000e+00
1.370000e+00 0.000000e+00 0.000000e+00
1.380000e+00 0.000000e+00 0.000000e+00
1.390000e+00 0.000000e+00 0.000000e+00
1.400000e+00 0.000000e+00 0.000000e+00
1.410000e+00 0.000000e+00 0.000000e+00
1.420000e+00 0.000000e+00 0.000000e+00
1.430000e+00 0.000000e+00 0.000000e+00
1.440000e+00 0.000000e+00 0.000000e+00
1.450000e+00 0.000000e+00 0.000000e+00
1.460000e+00 0.000000e+00 0.000000e+00
1.470000e+00 0.000000e+00 0.000000e+00
1.480000e+00 0.000000e+00 0.000000e+00
1.490000e+00 0.000000e+00 0.000000e+00
1.500000e+00 0.000000e+00 0.000000e+00
1.510000e+00 0.000000e+00 0.000000e+00
1.520000e+00 0.000000e+00 0.000000e+00
1.530000e+00 0.000000e+00 0.000000e+00
1.540000e+00 0.000000e+00 0.000000e+00
1.550000e+00 0.000000e+00 0.000000e+00
1.560000e+00 0.000000e+00 0.000000e+00
1.570000e+00 0.000000e+00 0.000000e+00
1.580000e+00 0.000000e+00 0.000000e+00
1.590000e+00 0.000000e+00 0.000000e+00
1.600000e+00 0.000000e+00 0.000000e+00
1.610000e+00 0.000000e+00 0.000000e+00
1.620000e+00 0.000000e+00 0.000000e+00
1.630000e+00 0.000000e+00 0.000000e+00
1.640000e+00 0.000000e+00 0.000000e+00
1.650000e+00 0.000000e+00 0.000000e+00
1.660000e+00 0.000000e+00 0.000000e+00
1.670000e+00 0.000000e+00 0.000000e+00
1.680000e+00 0.000000e+00 0.000000e+00
1.690000e+00 0.000000e+00 0.000000e+00
1.700000e+00 0.000000e+00 0.000000e+00
1.710000e+00 0.000000e+00 0.000000e+00
1.720000e+00 0.000000e+00 0.000000e+00
1.730000e+00 0.000000e+00 0.000000e+00
1.740000e+00 0.000000e+00 0.000000e+00
1.750000e+00 0.000000e+00 0.000000e+00
1.760000e+00 0.000000e+00 0.000000e+00
1.770000e+00 0.000000e+00 0.000000e+00
1.780000e+00 0.000000e+00 0.000000e+00
1.790000e+00 0.000000e+00 0.000000e+00
1.800000e+00 0.000000e+00 0.000000e+00
1.810000e+00 0.000000e+00 0.000000e+00
1.820000e+00 0.000000e+00 0.000000e+00
1.830000e+00 0.000000e+00 0.000000e+00
1.840000e+00 0.000000e+00 0.000000e+00
1.850000e+00 0.000000e+00 0.000000e+00
1.860000e+00 0.000000e+00 0.000000e+00
1.870000e+00 0.000000e+00 0.000000e+00
1.880000e+00 0.000000e+00 0.000000e+00
1.890000e+00 0.000000e+00 0.000000e+00
1.900000e+00 0.000000e+00 0.000000e+00
1.910000e+00 0.000000e+00 0.000000e+00
1.920000e+00 0.000000e+00 0.000000e+00
1.930000e+00 0.000000e+00 0.000000e+00
1.940000e+00 0.000000e+00 0.000000e+00
1.950000e+00 0.000000e+00 0.000000e+00
1.960000e+00 0.000000e+00 0.000000e+00
1.970000e+00 0.000000e+00 0.000000e+00
1.980000e+00 0.000000e+00 0.000000e+00
1.990000e+00 0.000000e+00 0.000000e+00
2.000000e+00 0.000000e+00 0.000000e+00
2.010000e+00 0.000000e+00 0.000000e+00
2.020000e+00 0.000000e+00 0.000000e+00
2.030000e+00 0.000000e+00 0.000000e+00
2.040000e+00 0.000000e+00 0.000000e+00
2.050000e+00 0.000000e+00 0.000000e+00
2.060000e+00 0.000000e+00 0.000000e+00
2.070000e+00 0.000000e+00 0.000000e+00
2.080000e+00 0.000000e+00 0.000000e+00
2.090000e+00 0.000000e+00 0.000000e+00
2.100000e+00 0.000000e+00 0.000000e+00
2.110000e+00 0.000000e+00 0.000000e+00
2.120000e+00 0.000000e+00 0.000000e+00
2.130000e+00 0.000000e+00 0.000000e+00
2.140000e+00 0.000000e+00 0.000000e+00
2.150000e+00 0.000000e+00 0.000000e+00
2.160000e+00 0.000000e+00 0.000000e+00
2.170000e+00 0.000000e+00 0.000000e+00
2.180000e+00 0.000000e+00 0.000000e+00
2.190000e+00 0.000000e+00 0.000000e+00
2.200000e+00 0.000000e+00 0.000000e+00
2.210000e+00 0.000000e+00 0.000000e+00
2.220000e+00 0.000000e+00 0.000000e+00
2.230000e+00 0.000000e+00 0.000000e+00
2.240000e+00 0.000000e+00 0.000000e+00
2.250000e+00 0.000000e+00 0.000000e+00
2.260000e+00 0.000000e+00 0.000000e+00
2.270000e+00 0.000000e+00 0.000000e+00
2.280000e+00 0.000000e+00 0.000000e+00
2.290000e+00 0.000000e+00 0.000000e+00
2.300000e+00 0.000000e+00 0.000000e+00
2.310000e+00 0.000000e+00 0.000000e+00
2.320000e+00 0.000000e+00 0.000000e+00
2.330000e+00 0.000000e+00 0.000000e+00
2.340000e+00 0.000000e+00 0.000000e+00
2.350000e+00 0.000000e+00 0.000000e+00
2.360000e+00 0.000000e+00 0.000000e+00
2.370000e+00 0.000000e+00 0.000000e+00
2.380000e+00 0.000000e+00 0.000000e+00
2.390000e+00 0.000000e+00 0.000000e+00
2.400000e+00 0.000000e+00 0.000000e+00
2.410000e+00 0.000000e+00 0.000000e+00
2.420000e+00 0.000000e+00 0.000000e+00
2.430000e+00 0.000000e+00 0.000000e+00
2.440000e+00 0.000000e+00 0.000000e+00
2.450000e+00 0.000000e+00 0.000000e+00
2.460000e+00 0.000000e+00 0.000000e+00
2.470000e+00 0.000000e+00 0.000000e+00
2.480000e+00 0.000000e+00 0.000000e+00
2.490000e+00 0.000000e+00 0.000000e+00
2.500000e+00 0.000000e+00 0.000000e+00
2.510000e+00 0.000000e+00 0.000000e+00
2.520000e+00 0.000000e+00 0.000000e+00
2.530000e+00 0.000000e+00 0.000000e+00
[...]
POINT_DATA 501
SCALARS vm float 1
LOOKUP_TABLE default
1.439374e+00
1.439684e+00
1.440301e+00
1.441218e+00
1.442423e+00
1.443931e+00
1.445649e+00
1.447572e+00
1.449699e+00
1.452025e+00
1.454530e+00
1.457214e+00
1.460067e+00
1.463078e+00
1.466244e+00
1.469558e+00
1.473009e+00
1.476597e+00
1.480314e+00
1.484149e+00
1.488105e+00
1.492174e+00
1.496343e+00
1.500619e+00
1.504993e+00
1.509453e+00
1.514007e+00
1.518646e+00
1.523359e+00
1.528153e+00
1.533021e+00
1.537954e+00
1.542957e+00
1.548018e+00
1.553144e+00
1.558328e+00
1.563559e+00
1.568849e+00
1.574188e+00
1.579568e+00
1.584998e+00
1.590470e+00
1.595978e+00
1.601528e+00
1.607110e+00
1.612731e+00
1.618386e+00
1.624065e+00
1.629779e+00
1.635522e+00
1.641286e+00
1.647080e+00
1.652895e+00
1.658733e+00
1.664594e+00
1.670470e+00
1.676370e+00
1.682289e+00
1.688219e+00
1.694170e+00
1.700137e+00
1.706113e+00
1.712107e+00
1.718109e+00
1.724127e+00
1.730157e+00
1.736191e+00
1.742241e+00
1.748301e+00
1.754364e+00
1.760440e+00
1.766520e+00
1.772609e+00
1.778707e+00
1.784804e+00
1.790913e+00
1.797028e+00
1.803142e+00
1.809265e+00
1.815393e+00
1.821520e+00
1.827656e+00
1.833788e+00
1.839930e+00
1.846075e+00
1.852216e+00
1.858365e+00
1.864516e+00
1.870663e+00
1.876818e+00
1.882969e+00
1.889125e+00
1.895283e+00
1.901436e+00
1.907596e+00
1.913757e+00
1.919912e+00
1.926073e+00
1.932231e+00
1.938390e+00
1.944552e+00
1.950707e+00
1.956869e+00
1.963031e+00
1.969185e+00
1.975346e+00
1.981505e+00
1.987660e+00
1.993819e+00
1.999972e+00
2.006129e+00
2.012287e+00
2.018437e+00
2.024593e+00
2.030747e+00
2.036896e+00
2.043049e+00
2.049197e+00
2.055347e+00
2.061498e+00
2.067641e+00
2.073790e+00
2.079938e+00
2.086079e+00
2.092224e+00
2.098366e+00
2.104508e+00
2.110651e+00
2.116786e+00
2.122927e+00
2.129068e+00
2.135201e+00
2.141339e+00
2.147476e+00
2.153607e+00
2.159742e+00
2.165871e+00
2.172004e+00
2.178137e+00
2.184262e+00
2.190393e+00
2.196523e+00
2.202647e+00
2.208775e+00
2.214898e+00
2.221023e+00
2.227149e+00
2.233268e+00
2.239392e+00
2.245516e+00
2.251633e+00
2.257755e+00
2.263873e+00
2.269991e+00
2.276111e+00
2.282224e+00
2.288343e+00
2.294462e+00
2.300573e+00
2.306690e+00
2.312806e+00
2.318916e+00
2.325031e+00
2.331141e+00
2.337254e+00
2.343368e+00
2.349475e+00
2.355588e+00
2.361700e+00
2.367807e+00
2.373918e+00
2.380025e+00
2.386134e+00
2.392245e+00
2.398348e+00
2.404458e+00
2.410567e+00
2.416671e+00
2.422779e+00
2.428885e+00
2.434990e+00
2.441098e+00
2.447200e+00
2.453307e+00
2.459415e+00
2.465516e+00
2.471623e+00
2.477730e+00
2.483831e+00
2.489938e+00
2.496039e+00
2.502145e+00
2.508251e+00
2.514351e+00
2.520457e+00
2.526563e+00
2.532664e+00
2.538770e+00
2.544872e+00
2.550976e+00
2.557082e+00
2.563182e+00
2.569288e+00
2.575395e+00
2.581495e+00
2.587601e+00
2.593705e+00
2.599808e+00
2.605915e+00
2.612016e+00
2.618122e+00
2.624229e+00
2.630330e+00
2.636437e+00
2.642545e+00
2.648647e+00
2.654754e+00
2.660857e+00
2.666964e+00
2.673073e+00
2.679175e+00
2.685283e+00
2.691392e+00
2.697496e+00
2.703605e+00
2.709711e+00
2.715819e+00
2.721929e+00
2.728033e+00
2.734144e+00
2.740255e+00
2.746361e+00
2.752472e+00
2.758582e+00
2.764691e+00
2.770803e+00
2.776910e+00
2.783023e+00
2.789137e+00
2.795244e+00
2.801358e+00
2.807473e+00
2.813583e+00
2.819697e+00
2.825808e+00
2.831923e+00
2.838039e+00
2.844150e+00
2.850267e+00
2.856385e+00
2.862497e+00
2.868614e+00
2.874730e+00
2.880847e+00
2.886966e+00
2.893080e+00
2.899200e+00
2.905321e+00
2.911436e+00
2.917557e+00
2.923678e+00
2.929796e+00
2.935918e+00
2.942036e+00
2.948159e+00
2.954283e+00
2.960401e+00
2.966525e+00
2.972651e+00
2.978771e+00
2.984896e+00
2.991018e+00
2.997144e+00
3.003271e+00
3.009392e+00
3.015520e+00
3.021649e+00
3.027772e+00
3.033901e+00
3.040027e+00
3.046155e+00
3.052285e+00
3.058410e+00
3.064541e+00
3.070673e+00
3.076799e+00
3.082931e+00
3.089063e+00
3.095191e+00
3.101324e+00
3.107453e+00
3.113586e+00
3.119720e+00
3.125849e+00
3.131983e+00
3.138119e+00
3.144249e+00
3.150384e+00
3.156517e+00
3.162651e+00
3.168788e+00
3.174918e+00
3.181055e+00
3.187193e+00
3.193325e+00
3.199462e+00
3.205597e+00
3.211733e+00
3.217871e+00
3.224004e+00
3.230142e+00
3.236281e+00
3.242414e+00
3.248552e+00
3.254691e+00
3.260826e+00
3.266964e+00
3.273098e+00
3.279236e+00
3.285375e+00
3.291508e+00
3.297647e+00
3.303786e+00
3.309919e+00
3.316057e+00
3.322192e+00
3.328328e+00
3.334466e+00
3.340598e+00
3.346735e+00
3.352872e+00
3.359003e+00
3.365139e+00
3.371272e+00
3.377405e+00
3.383540e+00
3.389669e+00
3.395802e+00
3.401936e+00
3.408063e+00
3.414194e+00
3.420325e+00
3.426451e+00
3.432580e+00
3.438704e+00
3.444830e+00
3.450957e+00
3.457077e+00
3.463201e+00
3.469325e+00
3.475442e+00
3.481562e+00
3.487678e+00
3.493795e+00
3.499911e+00
3.506020e+00
3.512134e+00
3.518246e+00
3.524351e+00
3.530458e+00
3.536562e+00
3.542663e+00
3.548765e+00
3.554860e+00
3.560956e+00
3.567052e+00
3.573139e+00
3.579228e+00
3.585316e+00
3.591395e+00
3.597475e+00
3.603549e+00
3.609623e+00
3.615695e+00
3.621758e+00
3.627822e+00
3.633884e+00
3.639936e+00
3.645988e+00
3.652034e+00
3.658077e+00
3.664117e+00
3.670147e+00
3.676177e+00
3.682204e+00
3.688219e+00
3.694233e+00
3.700241e+00
3.706243e+00
3.712240e+00
3.718227e+00
3.724212e+00
3.730191e+00
3.736157e+00
3.742122e+00
3.748080e+00
3.754025e+00
3.759966e+00
3.765897e+00
3.771822e+00
3.777739e+00
3.783642e+00
3.789540e+00
3.795431e+00
3.801305e+00
3.807174e+00
3.813030e+00
3.818877e+00
3.824713e+00
3.830533e+00
3.836347e+00
3.842148e+00
3.847932e+00
3.853706e+00
3.859466e+00
3.865211e+00
3.870944e+00
3.876658e+00
3.882360e+00
3.888048e+00
3.893713e+00
3.899366e+00
3.905004e+00
3.910618e+00
3.916217e+00
3.921795e+00
3.927355e+00
3.932896e+00
3.938411e+00
3.943910e+00
3.949387e+00
3.954836e+00
3.960265e+00
3.965669e+00
3.971048e+00
3.976403e+00
3.981727e+00
3.987028e+00
3.992302e+00
3.997541e+00
4.002755e+00
4.007937e+00
4.013087e+00
4.018206e+00
4.023288e+00
4.028339e+00
4.033355e+00
4.038330e+00
4.043271e+00
4.048176e+00
4.053035e+00
4.057856e+00
4.062634e+00
4.067370e+00
4.072063e+00
4.076704e+00
4.081304e+00
4.085856e+00
4.090352e+00
4.094801e+00
4.099196e+00
4.103538e+00
4.107824e+00
4.112050e+00
4.116220e+00
4.120331e+00
4.124374e+00
4.128357e+00
4.132274e+00
4.136122e+00
4.139901e+00
4.143606e+00
4.147241e+00
4.150800e+00
4.154276e+00
4.157676e+00
4.160995e+00
4.164223e+00
4.167367e+00
4.170419e+00
4.173380e+00
4.176244e+00
4.179005e+00
4.181669e+00
4.184227e+00
4.186670e+00
4.189004e+00
4.191221e+00
4.193312e+00
4.195278e+00
4.197115e+00
4.198813e+00
4.200364e+00
4.201776e+00
4.203030e+00
4.204115e+00
4.205018e+00
4.205759e+00
4.206329e+00
4.206717e+00
4.206913e+00
