# vtk DataFile Version 3.0
Monodomain MVF
ASCII
DATASET POLYDATA
POINTS 501 float
0.000000e+00 0.000000e+00 0.000000e+00
1.000000e-02 0.000000e+00 0.000000e+00
2.000000e-02 0.000000e+00 0.000000e+00
3.000000e-02 0.000000e+00 0.000000e+00
4.000000e-02 0.000000e+00 0.000000e+00
5.000000e-02 0.000000e+00 0.000000e+00
6.000000e-02 0.000000e+00 0.000000e+00
7.000000e-02 0.000000e+00 0.000000e+00
8.000000e-02 0.000000e+00 0.000000e+00
9.000000e-02 0.000000e+00 0.000000e+00
1.000000e-01 0.000000e+00 0.000000e+00
1.100000e-01 0.000000e+00 0.000000e+00
1.200000e-01 0.000000e+00 0.000000e+00
1.300000e-01 0.000000e+00 0.000000e+00
1.400000e-01 0.000000e+00 0.000000e+00
1.500000e-01 0.000000e+00 0.000000e+00
1.600000e-01 0.000000e+00 0.000000e+00
1.700000e-01 0.000000e+00 0.000000e+00
1.800000e-01 0.000000e+00 0.000000e+00
1.900000e-01 0.000000e+00 0.000000e+00
2.000000e-01 0.000000e+00 0.000000e+00
2.100000e-01 0.000000e+00 0.000000e+00
2.200000e-01 0.000000e+00 0.000000e+00
2.300000e-01 0.000000e+00 0.000000e+00
2.400000e-01 0.000000e+00 0.000000e+00
2.500000e-01 0.000000e+00 0.000000e+00
2.600000e-01 0.000000e+00 0.000000e+00
2.700000e-01 0.000000e+00 0.000000e+00
2.800000e-01 0.000000e+00 0.000000e+00
2.900000e-01 0.000000e+00 0.000000e+00
3.000000e-01 0.000000e+00 0.000000e+00
3.100000e-01 0.000000e+00 0.000000e+00
3.200000e-01 0.000000e+00 0.000000e+00
3.300000e-01 0.000000e+00 0.000000e+00
3.400000e-01 0.000000e+00 0.000000e+00
3.500000e-01 0.000000e+00 0.000000e+00
3.600000e-01 0.000000e+00 0.000000e+00
3.700000e-01 0.000000e+00 0.000000e+00
3.800000e-01 0.000000e+00 0.000000e+00
3.900000e-01 0.000000e+00 0.000000e+00
4.000000e-01 0.000000e+00 0.000000e+00
4.100000e-01 0.000000e+00 0.000000e+00
4.200000e-01 0.000000e+00 0.000000e+00
4.300000e-01 0.000000e+00 0.000000e+00
4.400000e-01 0.000000e+00 0.000000e+00
4.500000e-01 0.000000e+00 0.000000e+00
4.600000e-01 0.000000e+00 0.000000e+00
4.700000e-01 0.000000e+00 0.000000e+00
4.800000e-01 0.000000e+00 0.000000e+00
4.900000e-01 0.000000e+00 0.000000e+00
5.000000e-01 0.000000e+00 0.000000e+00
5.100000e-01 0.000000e+00 0.000000e+00
5.200000e-01 0.000000e+00 0.000000e+00
5.300000e-01 0.000000e+00 0.000000e+00
5.400000e-01 0.000000e+00 0.000000e+00
5.500000e-01 0.000000e+00 0.000000e+00
5.600000e-01 0.000000e+00 0.000000e+00
5.700000e-01 0.000000e+00 0.000000e+00
5.800000e-01 0.000000e+00 0.000000e+00
5.900000e-01 0.000000e+00 0.000000e+00
6.000000e-01 0.000000e+00 0.000000e+00
6.100000e-01 0.000000e+00 0.000000e+00
6.200000e-01 0.000000e+00 0.000000e+00
6.300000e-01 0.000000e+00 0.000000e+00
6.400000e-01 0.000000e+00 0.000000e+00
6.500000e-01 0.000000e+00 0.000000e+00
6.600000e-01 0.000000e+00 0.000000e+00
6.700000e-01 0.000000e+00 0.000000e+00
6.800000e-01 0.000000e+00 0.000000e+00
6.900000e-01 0.000000e+00 0.000000e+00
7.000000e-01 0.000000e+00 0.000000e+00
7.100000e-01 0.000000e+00 0.000000e+00
7.200000e-01 0.000000e+00 0.000000e+00
7.300000e-01 0.000000e+00 0.000000e+00
7.400000e-01 0.000000e+00 0.000000e+00
7.500000e-01 0.000000e+00 0.000000e+00
7.600000e-01 0.000000e+00 0.000000e+00
7.700000e-01 0.000000e+00 0.000000e+00
7.800000e-01 0.000000e+00 0.000000e+00
7.900000e-01 0.000000e+00 0.000000e+00
8.000000e-01 0.000000e+00 0.000000e+00
8.100000e-01 0.000000e+00 0.000000e+00
8.200000e-01 0.000000e+00 0.000000e+00
8.300000e-01 0.000000e+00 0.000000e+00
8.400000e-01 0.000000e+00 0.000000e+00
8.500000e-01 0.000000e+00 0.000000e+00
8.600000e-01 0.000000e+00 0.000000e+00
8.700000e-01 0.000000e+00 0.000000e+00
8.800000e-01 0.000000e+00 0.000000e+00
8.900000e-01 0.000000e+00 0.000000e+00
9.000000e-01 0.000000e+00 0.000000e+00
9.100000e-01 0.000000e+00 0.000000e+00
9.200000e-01 0.000000e+00 0.000000e+00
9.300000e-01 0.000000e+00 0.000000e+00
9.400000e-01 0.000000e+00 0.000000e+00
9.500000e-01 0.000000e+00 0.000000e+00
9.600000e-01 0.000000e+00 0.000000e+00
9.700000e-01 0.000000e+00 0.000000e+00
9.800000e-01 0.000000e+00 0.000000e+00
9.900000e-01 0.000000e+00 0.000000e+00
1.000000e+00 0.000000e+00 0.000000e+00
1.010000e+00 0.000000e+00 0.000000e+00
1.020000e+00 0.000000e+00 0.000000e+00
1.030000e+00 0.000000e+00 0.000000e+00
1.040000e+00 0.000000e+00 0.000000e+00
1.050000e+00 0.000000e+00 0.000000e+00
1.060000e+00 0.000000e+00 0.000000e+00
1.070000e+00 0.000000e+00 0.000000e+00
1.080000e+00 0.000000e+00 0.000000e+00
1.090000e+00 0.000000e+00 0.000000e+00
1.100000e+00 0.000000e+00 0.000000e+00
1.110000e+00 0.000000e+00 0.000000e+00
1.120000e+00 0.000000e+00 0.000000e+00
1.130000e+00 0.000000e+00 0.000000e+00
1.140000e+00 0.000000e+00 0.000000e+00
1.150000e+00 0.000000e+00 0.000000e+00
1.160000e+00 0.000000e+00 0.000000e+00
1.170000e+00 0.000000e+00 0.000000e+00
1.180000e+00 0.000000e+00 0.000000e+00
1.190000e+00 0.000000e+00 0.000000e+00
1.200000e+00 0.000000e+00 0.000000e+00
1.210000e+00 0.000000e+00 0.000000e+00
1.220000e+00 0.000000e+00 0.000000e+00
1.230000e+00 0.000000e+00 0.000000e+00
1.240000e+00 0.000000e+00 0.000000e+00
1.250000e+00 0.000000e+00 0.000000e+00
1.260000e+00 0.000000e+00 0.000000e+00
1.270000e+00 0.000000e+00 0.000000e+00
1.280000e+00 0.000000e+00 0.000000e+00
1.290000e+00 0.000000e+00 0.000000e+00
1.300000e+00 0.000000e+00 0.000000e+00
1.310000e+00 0.000000e+00 0.000000e+00
1.320000e+00 0.000000e+00 0.000000e+00
1.330000e+00 0.000000e+00 0.000000e+00
1.340000e+00 0.000000e+00 0.000000e+00
1.350000e+00 0.000000e+00 0.000000e+00
1.360000e+00 0.000000e+00 0.000000e+00
1.370000e+00 0.000000e+00 0.000000e+00
1.380000e+00 0.000000e+00 0.000000e+00
1.390000e+00 0.000000e+00 0.000000e+00
1.400000e+00 0.000000e+00 0.000000e+00
1.410000e+00 0.000000e+00 0.000000e+00
1.420000e+00 0.000000e+00 0.000000e+00
1.430000e+00 0.000000e+00 0.000000e+00
1.440000e+00 0.000000e+00 0.000000e+00
1.450000e+00 0.000000e+00 0.000000e+00
1.460000e+00 0.000000e+00 0.000000e+00
1.470000e+00 0.000000e+00 0.000000e+00
1.480000e+00 0.000000e+00 0.000000e+00
1.490000e+00 0.000000e+00 0.000000e+00
1.500000e+00 0.000000e+00 0.000000e+00
1.510000e+00 0.000000e+00 0.000000e+00
1.520000e+00 0.000000e+00 0.000000e+00
1.530000e+00 0.000000e+00 0.000000e+00
1.540000e+00 0.000000e+00 0.000000e+00
1.550000e+00 0.000000e+00 0.000000e+00
1.560000e+00 0.000000e+00 0.000000e+00
1.570000e+00 0.000000e+00 0.000000e+00
1.580000e+00 0.000000e+00 0.000000e+00
1.590000e+00 0.000000e+00 0.000000e+00
1.600000e+00 0.000000e+00 0.000000e+00
1.610000e+00 0.000000e+00 0.000000e+00
1.620000e+00 0.000000e+00 0.000000e+00
1.630000e+00 0.000000e+00 0.000000e+00
1.640000e+00 0.000000e+00 0.000000e+00
1.650000e+00 0.000000e+00 0.000000e+00
1.660000e+00 0.000000e+00 0.000000e+00
1.670000e+00 0.000000e+00 0.000000e+00
1.680000e+00 0.000000e+00 0.000000e+00
1.690000e+00 0.000000e+00 0.000000e+00
1.700000e+00 0.000000e+00 0.000000e+00
1.710000e+00 0.000000e+00 0.000000e+00
1.720000e+00 0.000000e+00 0.000000e+00
1.730000e+00 0.000000e+00 0.000000e+00
1.740000e+00 0.000000e+00 0.000000e+00
1.750000e+00 0.000000e+00 0.000000e+00
1.760000e+00 0.000000e+00 0.000000e+00
1.770000e+00 0.000000e+00 0.000000e+00
1.780000e+00 0.000000e+00 0.000000e+00
1.790000e+00 0.000000e+00 0.000000e+00
1.800000e+00 0.000000e+00 0.000000e+00
1.810000e+00 0.000000e+00 0.000000e+00
1.820000e+00 0.000000e+00 0.000000e+00
1.830000e+00 0.000000e+00 0.000000e+00
1.840000e+00 0.000000e+00 0.000000e+00
1.850000e+00 0.000000e+00 0.000000e+00
1.860000e+00 0.000000e+00 0.000000e+00
1.870000e+00 0.000000e+00 0.000000e+00
1.880000e+00 0.000000e+00 0.000000e+00
1.890000e+00 0.000000e+00 0.000000e+00
1.900000e+00 0.000000e+00 0.000000e+00
1.910000e+00 0.000000e+00 0.000000e+00
1.920000e+00 0.000000e+00 0.000000e+00
1.930000e+00 0.000000e+00 0.000000e+00
1.940000e+00 0.000000e+00 0.000000e+00
1.950000e+00 0.000000e+00 0.000000e+00
1.960000e+00 0.000000e+00 0.000000e+00
1.970000e+00 0.000000e+00 0.000000e+00
1.980000e+00 0.000000e+00 0.000000e+00
1.990000e+00 0.000000e+00 0.000000e+00
2.000000e+00 0.000000e+00 0.000000e+00
2.010000e+00 0.000000e+00 0.000000e+00
2.020000e+00 0.000000e+00 0.000000e+00
2.030000e+00 0.000000e+00 0.000000e+00
2.040000e+00 0.000000e+00 0.000000e+00
2.050000e+00 0.000000e+00 0.000000e+00
2.060000e+00 0.000000e+00 0.000000e+00
2.070000e+00 0.000000e+00 0.000000e+00
2.080000e+00 0.000000e+00 0.000000e+00
2.090000e+00 0.000000e+00 0.000000e+00
2.100000e+00 0.000000e+00 0.000000e+00
2.110000e+00 0.000000e+00 0.000000e+00
2.120000e+00 0.000000e+00 0.000000e+00
2.130000e+00 0.000000e+00 0.000000e+00
2.140000e+00 0.000000e+00 0.000000e+00
2.150000e+00 0.000000e+00 0.000000e+00
2.160000e+00 0.000000e+00 0.000000e+00
2.170000e+00 0.000000e+00 0.000000e+00
2.180000e+00 0.000000e+00 0.000000e+00
2.190000e+00 0.000000e+00 0.000000e+00
2.200000e+00 0.000000e+00 0.000000e+00
2.210000e+00 0.000000e+00 0.000000e+00
2.220000e+00 0.000000e+00 0.000000e+00
2.230000e+00 0.000000e+00 0.000000e+00
2.240000e+00 0.000000e+00 0.000000e+00
2.250000e+00 0.000000e+00 0.000000e+00
2.260000e+00 0.000000e+00 0.000000e+00
2.270000e+00 0.000000e+00 0.000000e+00
2.280000e+00 0.000000e+00 0.000000e+00
2.290000e+00 0.000000e+00 0.000000e+00
2.300000e+00 0.000000e+00 0.000000e+00
2.310000e+00 0.000000e+00 0.000000e+00
2.320000e+00 0.000000e+00 0.000000e+00
2.330000e+00 0.000000e+00 0.000000e+00
2.340000e+00 0.000000e+00 0.000000e+00
2.350000e+00 0.000000e+00 0.000000e+00
2.360000e+00 0.000000e+00 0.000000e+00
2.370000e+00 0.000000e+00 0.000000e+00
2.380000e+00 0.000000e+00 0.000000e+00
2.390000e+00 0.000000e+00 0.000000e+00
2.400000e+00 0.000000e+00 0.000000e+00
2.410000e+00 0.000000e+00 0.000000e+00
2.420000e+00 0.000000e+00 0.000000e+00
2.430000e+00 0.000000e+00 0.000000e+00
2.440000e+00 0.000000e+00 0.000000e+00
2.450000e+00 0.000000e+00 0.000000e+00
2.460000e+00 0.000000e+00 0.000000e+00
2.470000e+00 0.000000e+00 0.000000e+00
2.480000e+00 0.000000e+00 0.000000e+00
2.490000e+00 0.000000e+00 0.000000e+00
2.500000e+00 0.000000e+00 0.000000e+00
2.510000e+00 0.000000e+00 0.000000e+00
2.520000e+00 0.000000e+00 0.000000e+00
2.530000e+00 0.000000e+00 0.000000e+00
[...]
POINT_DATA 501
SCALARS vm float 1
LOOKUP_TABLE default
-5.982274e+01
-5.982258e+01
-5.982227e+01
-5.982180e+01
-5.982118e+01
-5.982038e+01
-5.981946e+01
-5.981840e+01
-5.981719e+01
-5.981584e+01
-5.981435e+01
-5.981272e+01
-5.981096e+01
-5.980906e+01
-5.980702e+01
-5.980485e+01
-5.980256e+01
-5.980013e+01
-5.979757e+01
-5.979489e+01
-5.979208e+01
-5.978914e+01
-5.978608e+01
-5.978290e+01
-5.977960e+01
-5.977617e+01
-5.977263e+01
-5.976897e+01
-5.976519e+01
-5.976130e+01
-5.975729e+01
-5.975317e+01
-5.974893e+01
-5.974458e+01
-5.974012e+01
-5.973555e+01
-5.973087e+01
-5.972608e+01
-5.972119e+01
-5.971618e+01
-5.971107e+01
-5.970586e+01
-5.970054e+01
-5.969511e+01
-5.968958e+01
-5.968395e+01
-5.967822e+01
-5.967239e+01
-5.966646e+01
-5.966042e+01
-5.965429e+01
-5.964806e+01
-5.964174e+01
-5.963531e+01
-5.962879e+01
-5.962218e+01
-5.961547e+01
-5.960866e+01
-5.960176e+01
-5.959477e+01
-5.958768e+01
-5.958051e+01
-5.957324e+01
-5.956588e+01
-5.955844e+01
-5.955090e+01
-5.954327e+01
-5.953556e+01
-5.952775e+01
-5.951987e+01
-5.951189e+01
-5.950383e+01
-5.949568e+01
-5.948745e+01
-5.947913e+01
-5.947073e+01
-5.946225e+01
-5.945368e+01
-5.944503e+01
-5.943630e+01
-5.942749e+01
-5.941860e+01
-5.940963e+01
-5.940058e+01
-5.939145e+01
-5.938224e+01
-5.937295e+01
-5.936359e+01
-5.935415e+01
-5.934463e+01
-5.933504e+01
-5.932538e+01
-5.931563e+01
-5.930582e+01
-5.929593e+01
-5.928596e+01
-5.927593e+01
-5.926582e+01
-5.925564e+01
-5.924539e+01
-5.923507e+01
-5.922468e+01
-5.921422e+01
-5.920369e+01
-5.919309e+01
-5.918242e+01
-5.917169e+01
-5.916089e+01
-5.915002e+01
-5.913909e+01
-5.912809e+01
-5.911702e+01
-5.910590e+01
-5.909470e+01
-5.908345e+01
-5.907213e+01
-5.906075e+01
-5.904930e+01
-5.903780e+01
-5.902623e+01
-5.901461e+01
-5.900292e+01
-5.899117e+01
-5.897937e+01
-5.896751e+01
-5.895558e+01
-5.894361e+01
-5.893157e+01
-5.891948e+01
-5.890733e+01
-5.889512e+01
-5.888287e+01
-5.887055e+01
-5.885819e+01
-5.884577e+01
-5.883329e+01
-5.882077e+01
-5.880819e+01
-5.879556e+01
-5.878288e+01
-5.877014e+01
-5.875736e+01
-5.874453e+01
-5.873165e+01
-5.871872e+01
-5.870575e+01
-5.869272e+01
-5.867965e+01
-5.866653e+01
-5.865337e+01
-5.864016e+01
-5.862691e+01
-5.861361e+01
-5.860027e+01
-5.858688e+01
-5.857345e+01
-5.855998e+01
-5.854646e+01
-5.853291e+01
-5.851931e+01
-5.850567e+01
-5.849199e+01
-5.847827e+01
-5.846452e+01
-5.845072e+01
-5.843689e+01
-5.842302e+01
-5.840911e+01
-5.839516e+01
-5.838118e+01
-5.836716e+01
-5.835311e+01
-5.833902e+01
-5.832490e+01
-5.831075e+01
-5.829656e+01
-5.828234e+01
-5.826808e+01
-5.825380e+01
-5.823948e+01
-5.822514e+01
-5.821076e+01
-5.819635e+01
-5.818191e+01
-5.816745e+01
-5.815295e+01
-5.813843e+01
-5.812388e+01
-5.810930e+01
-5.809470e+01
-5.808007e+01
-5.806541e+01
-5.805073e+01
-5.803603e+01
-5.802130e+01
-5.800655e+01
-5.799178e+01
-5.797698e+01
-5.796216e+01
-5.794732e+01
-5.793245e+01
-5.791757e+01
-5.790267e+01
-5.788774e+01
-5.787280e+01
-5.785784e+01
-5.784286e+01
-5.782786e+01
-5.781285e+01
-5.779782e+01
-5.778277e+01
-5.776771e+01
-5.775263e+01
-5.773754e+01
-5.772243e+01
-5.770731e+01
-5.769217e+01
-5.767702e+01
-5.766186e+01
-5.764669e+01
-5.763150e+01
-5.761631e+01
-5.760110e+01
-5.758589e+01
-5.757066e+01
-5.755543e+01
-5.754018e+01
-5.752493e+01
-5.750967e+01
-5.749440e+01
-5.747913e+01
-5.746385e+01
-5.744856e+01
-5.743327e+01
-5.741798e+01
-5.740268e+01
-5.738737e+01
-5.737207e+01
-5.735676e+01
-5.734144e+01
-5.732613e+01
-5.731081e+01
-5.729549e+01
-5.728018e+01
-5.726486e+01
-5.724954e+01
-5.723422e+01
-5.721891e+01
-5.720359e+01
-5.718828e+01
-5.717297e+01
-5.715767e+01
-5.714237e+01
-5.712707e+01
-5.711177e+01
-5.709649e+01
-5.708121e+01
-5.706593e+01
-5.705066e+01
-5.703540e+01
-5.702014e+01
-5.700490e+01
-5.698966e+01
-5.697443e+01
-5.695921e+01
-5.694400e+01
-5.692880e+01
-5.691361e+01
-5.689843e+01
-5.688326e+01
-5.686811e+01
-5.685297e+01
-5.683784e+01
-5.682273e+01
-5.680763e+01
-5.679254e+01
-5.677747e+01
-5.676242e+01
-5.674738e+01
-5.673236e+01
-5.671735e+01
-5.670237e+01
-5.668740e+01
-5.667245e+01
-5.665752e+01
-5.664260e+01
-5.662771e+01
-5.661284e+01
-5.659799e+01
-5.658316e+01
-5.656835e+01
-5.655357e+01
-5.653880e+01
-5.652406e+01
-5.650935e+01
-5.649466e+01
-5.647999e+01
-5.646535e+01
-5.645073e+01
-5.643614e+01
-5.642158e+01
-5.640705e+01
-5.639254e+01
-5.637806e+01
-5.636360e+01
-5.634918e+01
-5.633479e+01
-5.632043e+01
-5.630609e+01
-5.629179e+01
-5.627752e+01
-5.626328e+01
-5.624908e+01
-5.623490e+01
-5.622076e+01
-5.620666e+01
-5.619259e+01
-5.617855e+01
-5.616455e+01
-5.615058e+01
-5.613665e+01
-5.612276e+01
-5.610891e+01
-5.609509e+01
-5.608131e+01
-5.606757e+01
-5.605387e+01
-5.604021e+01
-5.602658e+01
-5.601300e+01
-5.599946e+01
-5.598596e+01
-5.597251e+01
-5.595909e+01
-5.594572e+01
-5.593240e+01
-5.591911e+01
-5.590587e+01
-5.589268e+01
-5.587953e+01
-5.586643e+01
-5.585337e+01
-5.584037e+01
-5.582740e+01
-5.581449e+01
-5.580163e+01
-5.578881e+01
-5.577604e+01
-5.576332e+01
-5.575066e+01
-5.573804e+01
-5.572548e+01
-5.571296e+01
-5.570050e+01
-5.568809e+01
-5.567574e+01
-5.566344e+01
-5.565119e+01
-5.563900e+01
-5.562686e+01
-5.561478e+01
-5.560275e+01
-5.559078e+01
-5.557887e+01
-5.556702e+01
-5.555522e+01
-5.554348e+01
-5.553181e+01
-5.552018e+01
-5.550863e+01
-5.549713e+01
-5.548569e+01
-5.547431e+01
-5.546300e+01
-5.545174e+01
-5.544055e+01
-5.542943e+01
-5.541836e+01
-5.540737e+01
-5.539643e+01
-5.538556e+01
-5.537476e+01
-5.536402e+01
-5.535335e+01
-5.534275e+01
-5.533221e+01
-5.532175e+01
-5.531135e+01
-5.530102e+01
-5.529075e+01
-5.528056e+01
-5.527044e+01
-5.526039e+01
-5.525041e+01
-5.524051e+01
-5.523067e+01
-5.522091e+01
-5.521122e+01
-5.520161e+01
-5.519206e+01
-5.518260e+01
-5.517320e+01
-5.516389e+01
-5.515465e+01
-5.514548e+01
-5.513639e+01
-5.512738e+01
-5.511845e+01
-5.510959e+01
-5.510082e+01
-5.509212e+01
-5.508350e+01
-5.507496e+01
-5.506650e+01
-5.505813e+01
-5.504983e+01
-5.504161e+01
-5.503348e+01
-5.502543e+01
-5.501746e+01
-5.500958e+01
-5.500178e+01
-5.499406e+01
-5.498643e+01
-5.497888e+01
-5.497142e+01
-5.496404e+01
-5.495675e+01
-5.494955e+01
-5.494243e+01
-5.493540e+01
-5.492846e+01
-5.492161e+01
-5.491484e+01
-5.490817e+01
-5.490158e+01
-5.489508e+01
-5.488868e+01
-5.488236e+01
-5.487613e+01
-5.487000e+01
-5.486396e+01
-5.485801e+01
-5.485215e+01
-5.484638e+01
-5.484071e+01
-5.483513e+01
-5.482965e+01
-5.482425e+01
-5.481896e+01
-5.481376e+01
-5.480865e+01
-5.480364e+01
-5.479872e+01
-5.479390e+01
-5.478918e+01
-5.478455e+01
-5.478002e+01
-5.477559e+01
-5.477125e+01
-5.476702e+01
-5.476288e+01
-5.475884e+01
-5.475490e+01
-5.475105e+01
-5.474731e+01
-5.474367e+01
-5.474012e+01
-5.473668e+01
-5.473333e+01
-5.473009e+01
-5.472694e+01
-5.472390e+01
-5.472096e+01
-5.471812e+01
-5.471538e+01
-5.471275e+01
-5.471021e+01
-5.470778e+01
-5.470545e+01
-5.470322e+01
-5.470109e+01
-5.469907e+01
-5.469715e+01
-5.469533e+01
-5.469362e+01
-5.469201e+01
-5.469051e+01
-5.468911e+01
-5.468781e+01
-5.468662e+01
-5.468553e+01
-5.468455e+01
-5.468368e+01
-5.468291e+01
-5.468225e+01
-5.468171e+01
-5.468127e+01
-5.468094e+01
-5.468071e+01
-5.468060e+01
