# vtk DataFile Version 3.0
Monodomain MVF
ASCII
DATASET POLYDATA
POINTS 501 float
0.000000e+00 0.000000e+00 0.000000e+00
1.000000e-02 0.000000e+00 0.000000e+00
2.000000e-02 0.000000e+00 0.000000e+00
3.000000e-02 0.000000e+00 0.000000e+00
4.000000e-02 0.000000e+00 0.000000e+00
5.000000e-02 0.000000e+00 0.000000e+00
6.000000e-02 0.000000e+00 0.000000e+00
7.000000e-02 0.000000e+00 0.000000e+00
8.000000e-02 0.000000e+00 0.000000e+00
9.000000e-02 0.000000e+00 0.000000e+00
1.000000e-01 0.000000e+00 0.000000e+00
1.100000e-01 0.000000e+00 0.000000e+00
1.200000e-01 0.000000e+00 0.000000e+00
1.300000e-01 0.000000e+00 0.000000e+00
1.400000e-01 0.000000e+00 0.000000e+00
1.500000e-01 0.000000e+00 0.000000e+00
1.600000e-01 0.000000e+00 0.000000e+00
1.700000e-01 0.000000e+00 0.000000e+00
1.800000e-01 0.000000e+00 0.000000e+00
1.900000e-01 0.000000e+00 0.000000e+00
2.000000e-01 0.000000e+00 0.000000e+00
2.100000e-01 0.000000e+00 0.000000e+00
2.200000e-01 0.000000e+00 0.000000e+00
2.300000e-01 0.000000e+00 0.000000e+00
2.400000e-01 0.000000e+00 0.000000e+00
2.500000e-01 0.000000e+00 0.000000e+00
2.600000e-01 0.000000e+00 0.000000e+00
2.700000e-01 0.000000e+00 0.000000e+00
2.800000e-01 0.000000e+00 0.000000e+00
2.900000e-01 0.000000e+00 0.000000e+00
3.000000e-01 0.000000e+00 0.000000e+00
3.100000e-01 0.000000e+00 0.000000e+00
3.200000e-01 0.000000e+00 0.000000e+00
3.300000e-01 0.000000e+00 0.000000e+00
3.400000e-01 0.000000e+00 0.000000e+00
3.500000e-01 0.000000e+00 0.000000e+00
3.600000e-01 0.000000e+00 0.000000e+00
3.700000e-01 0.000000e+00 0.000000e+00
3.800000e-01 0.000000e+00 0.000000e+00
3.900000e-01 0.000000e+00 0.000000e+00
4.000000e-01 0.000000e+00 0.000000e+00
4.100000e-01 0.000000e+00 0.000000e+00
4.200000e-01 0.000000e+00 0.000000e+00
4.300000e-01 0.000000e+00 0.000000e+00
4.400000e-01 0.000000e+00 0.000000e+00
4.500000e-01 0.000000e+00 0.000000e+00
4.600000e-01 0.000000e+00 0.000000e+00
4.700000e-01 0.000000e+00 0.000000e+00
4.800000e-01 0.000000e+00 0.000000e+00
4.900000e-01 0.000000e+00 0.000000e+00
5.000000e-01 0.000000e+00 0.000000e+00
5.100000e-01 0.000000e+00 0.000000e+00
5.200000e-01 0.000000e+00 0.000000e+00
5.300000e-01 0.000000e+00 0.000000e+00
5.400000e-01 0.000000e+00 0.000000e+00
5.500000e-01 0.000000e+00 0.000000e+00
5.600000e-01 0.000000e+00 0.000000e+00
5.700000e-01 0.000000e+00 0.000000e+00
5.800000e-01 0.000000e+00 0.000000e+00
5.900000e-01 0.000000e+00 0.000000e+00
6.000000e-01 0.000000e+00 0.000000e+00
6.100000e-01 0.000000e+00 0.000000e+00
6.200000e-01 0.000000e+00 0.000000e+00
6.300000e-01 0.000000e+00 0.000000e+00
6.400000e-01 0.000000e+00 0.000000e+00
6.500000e-01 0.000000e+00 0.000000e+00
6.600000e-01 0.000000e+00 0.000000e+00
6.700000e-01 0.000000e+00 0.000000e+00
6.800000e-01 0.000000e+00 0.000000e+00
6.900000e-01 0.000000e+00 0.000000e+00
7.000000e-01 0.000000e+00 0.000000e+00
7.100000e-01 0.000000e+00 0.000000e+00
7.200000e-01 0.000000e+00 0.000000e+00
7.300000e-01 0.000000e+00 0.000000e+00
7.400000e-01 0.000000e+00 0.000000e+00
7.500000e-01 0.000000e+00 0.000000e+00
7.600000e-01 0.000000e+00 0.000000e+00
7.700000e-01 0.000000e+00 0.000000e+00
7.800000e-01 0.000000e+00 0.000000e+00
7.900000e-01 0.000000e+00 0.000000e+00
8.000000e-01 0.000000e+00 0.000000e+00
8.100000e-01 0.000000e+00 0.000000e+00
8.200000e-01 0.000000e+00 0.000000e+00
8.300000e-01 0.000000e+00 0.000000e+00
8.400000e-01 0.000000e+00 0.000000e+00
8.500000e-01 0.000000e+00 0.000000e+00
8.600000e-01 0.000000e+00 0.000000e+00
8.700000e-01 0.000000e+00 0.000000e+00
8.800000e-01 0.000000e+00 0.000000e+00
8.900000e-01 0.000000e+00 0.000000e+00
9.000000e-01 0.000000e+00 0.000000e+00
9.100000e-01 0.000000e+00 0.000000e+00
9.200000e-01 0.000000e+00 0.000000e+00
9.300000e-01 0.000000e+00 0.000000e+00
9.400000e-01 0.000000e+00 0.000000e+00
9.500000e-01 0.000000e+00 0.000000e+00
9.600000e-01 0.000000e+00 0.000000e+00
9.700000e-01 0.000000e+00 0.000000e+00
9.800000e-01 0.000000e+00 0.000000e+00
9.900000e-01 0.000000e+00 0.000000e+00
1.000000e+00 0.000000e+00 0.000000e+00
1.010000e+00 0.000000e+00 0.000000e+00
1.020000e+00 0.000000e+00 0.000000e+00
1.030000e+00 0.000000e+00 0.000000e+00
1.040000e+00 0.000000e+00 0.000000e+00
1.050000e+00 0.000000e+00 0.000000e+00
1.060000e+00 0.000000e+00 0.000000e+00
1.070000e+00 0.000000e+00 0.000000e+00
1.080000e+00 0.000000e+00 0.000000e+00
1.090000e+00 0.000000e+00 0.000000e+00
1.100000e+00 0.000000e+00 0.000000e+00
1.110000e+00 0.000000e+00 0.000000e+00
1.120000e+00 0.000000e+00 0.000000e+00
1.130000e+00 0.000000e+00 0.000000e+00
1.140000e+00 0.000000e+00 0.000000e+00
1.150000e+00 0.000000e+00 0.000000e+00
1.160000e+00 0.000000e+00 0.000000e+00
1.170000e+00 0.000000e+00 0.000000e+00
1.180000e+00 0.000000e+00 0.000000e+00
1.190000e+00 0.000000e+00 0.000000e+00
1.200000e+00 0.000000e+00 0.000000e+00
1.210000e+00 0.000000e+00 0.000000e+00
1.220000e+00 0.000000e+00 0.000000e+00
1.230000e+00 0.000000e+00 0.000000e+00
1.240000e+00 0.000000e+00 0.000000e+00
1.250000e+00 0.000000e+00 0.000000e+00
1.260000e+00 0.000000e+00 0.000000e+00
1.270000e+00 0.000000e+00 0.000000e+00
1.280000e+00 0.000000e+00 0.000000e+00
1.290000e+00 0.000000e+00 0.000000e+00
1.300000e+00 0.000000e+00 0.000000e+00
1.310000e+00 0.000000e+00 0.000000e+00
1.320000e+00 0.000000e+00 0.000000e+00
1.330000e+00 0.000000e+00 0.000000e+00
1.340000e+00 0.000000e+00 0.000000e+00
1.350000e+00 0.000000e+00 0.000000e+00
1.360000e+00 0.000000e+00 0.000000e+00
1.370000e+00 0.000000e+00 0.000000e+00
1.380000e+00 0.000000e+00 0.000000e+00
1.390000e+00 0.000000e+00 0.000000e+00
1.400000e+00 0.000000e+00 0.000000e+00
1.410000e+00 0.000000e+00 0.000000e+00
1.420000e+00 0.000000e+00 0.000000e+00
1.430000e+00 0.000000e+00 0.000000e+00
1.440000e+00 0.000000e+00 0.000000e+00
1.450000e+00 0.000000e+00 0.000000e+00
1.460000e+00 0.000000e+00 0.000000e+00
1.470000e+00 0.000000e+00 0.000000e+00
1.480000e+00 0.000000e+00 0.000000e+00
1.490000e+00 0.000000e+00 0.000000e+00
1.500000e+00 0.000000e+00 0.000000e+00
1.510000e+00 0.000000e+00 0.000000e+00
1.520000e+00 0.000000e+00 0.000000e+00
1.530000e+00 0.000000e+00 0.000000e+00
1.540000e+00 0.000000e+00 0.000000e+00
1.550000e+00 0.000000e+00 0.000000e+00
1.560000e+00 0.000000e+00 0.000000e+00
1.570000e+00 0.000000e+00 0.000000e+00
1.580000e+00 0.000000e+00 0.000000e+00
1.590000e+00 0.000000e+00 0.000000e+00
1.600000e+00 0.000000e+00 0.000000e+00
1.610000e+00 0.000000e+00 0.000000e+00
1.620000e+00 0.000000e+00 0.000000e+00
1.630000e+00 0.000000e+00 0.000000e+00
1.640000e+00 0.000000e+00 0.000000e+00
1.650000e+00 0.000000e+00 0.000000e+00
1.660000e+00 0.000000e+00 0.000000e+00
1.670000e+00 0.000000e+00 0.000000e+00
1.680000e+00 0.000000e+00 0.000000e+00
1.690000e+00 0.000000e+00 0.000000e+00
1.700000e+00 0.000000e+00 0.000000e+00
1.710000e+00 0.000000e+00 0.000000e+00
1.720000e+00 0.000000e+00 0.000000e+00
1.730000e+00 0.000000e+00 0.000000e+00
1.740000e+00 0.000000e+00 0.000000e+00
1.750000e+00 0.000000e+00 0.000000e+00
1.760000e+00 0.000000e+00 0.000000e+00
1.770000e+00 0.000000e+00 0.000000e+00
1.780000e+00 0.000000e+00 0.000000e+00
1.790000e+00 0.000000e+00 0.000000e+00
1.800000e+00 0.000000e+00 0.000000e+00
1.810000e+00 0.000000e+00 0.000000e+00
1.820000e+00 0.000000e+00 0.000000e+00
1.830000e+00 0.000000e+00 0.000000e+00
1.840000e+00 0.000000e+00 0.000000e+00
1.850000e+00 0.000000e+00 0.000000e+00
1.860000e+00 0.000000e+00 0.000000e+00
1.870000e+00 0.000000e+00 0.000000e+00
1.880000e+00 0.000000e+00 0.000000e+00
1.890000e+00 0.000000e+00 0.000000e+00
1.900000e+00 0.000000e+00 0.000000e+00
1.910000e+00 0.000000e+00 0.000000e+00
1.920000e+00 0.000000e+00 0.000000e+00
1.930000e+00 0.000000e+00 0.000000e+00
1.940000e+00 0.000000e+00 0.000000e+00
1.950000e+00 0.000000e+00 0.000000e+00
1.960000e+00 0.000000e+00 0.000000e+00
1.970000e+00 0.000000e+00 0.000000e+00
1.980000e+00 0.000000e+00 0.000000e+00
1.990000e+00 0.000000e+00 0.000000e+00
2.000000e+00 0.000000e+00 0.000000e+00
2.010000e+00 0.000000e+00 0.000000e+00
2.020000e+00 0.000000e+00 0.000000e+00
2.030000e+00 0.000000e+00 0.000000e+00
2.040000e+00 0.000000e+00 0.000000e+00
2.050000e+00 0.000000e+00 0.000000e+00
2.060000e+00 0.000000e+00 0.000000e+00
2.070000e+00 0.000000e+00 0.000000e+00
2.080000e+00 0.000000e+00 0.000000e+00
2.090000e+00 0.000000e+00 0.000000e+00
2.100000e+00 0.000000e+00 0.000000e+00
2.110000e+00 0.000000e+00 0.000000e+00
2.120000e+00 0.000000e+00 0.000000e+00
2.130000e+00 0.000000e+00 0.000000e+00
2.140000e+00 0.000000e+00 0.000000e+00
2.150000e+00 0.000000e+00 0.000000e+00
2.160000e+00 0.000000e+00 0.000000e+00
2.170000e+00 0.000000e+00 0.000000e+00
2.180000e+00 0.000000e+00 0.000000e+00
2.190000e+00 0.000000e+00 0.000000e+00
2.200000e+00 0.000000e+00 0.000000e+00
2.210000e+00 0.000000e+00 0.000000e+00
2.220000e+00 0.000000e+00 0.000000e+00
2.230000e+00 0.000000e+00 0.000000e+00
2.240000e+00 0.000000e+00 0.000000e+00
2.250000e+00 0.000000e+00 0.000000e+00
2.260000e+00 0.000000e+00 0.000000e+00
2.270000e+00 0.000000e+00 0.000000e+00
2.280000e+00 0.000000e+00 0.000000e+00
2.290000e+00 0.000000e+00 0.000000e+00
2.300000e+00 0.000000e+00 0.000000e+00
2.310000e+00 0.000000e+00 0.000000e+00
2.320000e+00 0.000000e+00 0.000000e+00
2.330000e+00 0.000000e+00 0.000000e+00
2.340000e+00 0.000000e+00 0.000000e+00
2.350000e+00 0.000000e+00 0.000000e+00
2.360000e+00 0.000000e+00 0.000000e+00
2.370000e+00 0.000000e+00 0.000000e+00
2.380000e+00 0.000000e+00 0.000000e+00
2.390000e+00 0.000000e+00 0.000000e+00
2.400000e+00 0.000000e+00 0.000000e+00
2.410000e+00 0.000000e+00 0.000000e+00
2.420000e+00 0.000000e+00 0.000000e+00
2.430000e+00 0.000000e+00 0.000000e+00
2.440000e+00 0.000000e+00 0.000000e+00
2.450000e+00 0.000000e+00 0.000000e+00
2.460000e+00 0.000000e+00 0.000000e+00
2.470000e+00 0.000000e+00 0.000000e+00
2.480000e+00 0.000000e+00 0.000000e+00
2.490000e+00 0.000000e+00 0.000000e+00
2.500000e+00 0.000000e+00 0.000000e+00
2.510000e+00 0.000000e+00 0.000000e+00
2.520000e+00 0.000000e+00 0.000000e+00
2.530000e+00 0.000000e+00 0.000000e+00
[...]
POINT_DATA 501
SCALARS vm float 1
LOOKUP_TABLE default
3.161769e+01
3.160789e+01
3.158808e+01
3.155837e+01
3.152009e+01
3.147519e+01
3.142340e+01
3.136340e+01
3.129833e+01
3.123002e+01
3.115585e+01
3.107747e+01
3.099786e+01
3.091475e+01
3.082898e+01
3.074371e+01
3.065682e+01
3.056908e+01
3.048344e+01
3.039763e+01
3.031282e+01
3.023148e+01
3.015110e+01
3.007353e+01
3.000043e+01
2.992923e+01
2.986254e+01
2.980081e+01
2.974192e+01
2.968898e+01
2.964100e+01
2.959695e+01
2.955983e+01
2.952733e+01
2.949993e+01
2.947984e+01
2.946405e+01
2.945453e+01
2.945204e+01
2.945383e+01
2.946285e+01
2.947803e+01
2.949793e+01
2.952556e+01
2.955823e+01
2.959636e+01
2.964209e+01
2.969199e+01
2.974824e+01
2.981126e+01
2.987812e+01
2.995211e+01
3.003149e+01
3.011502e+01
3.020595e+01
3.030089e+01
3.040076e+01
3.050758e+01
3.061746e+01
3.073324e+01
3.085479e+01
3.097919e+01
3.111030e+01
3.124566e+01
3.138414e+01
3.152967e+01
3.167801e+01
3.183033e+01
3.198916e+01
3.215003e+01
3.231609e+01
3.248817e+01
3.266046e+01
3.284021e+01
3.302565e+01
3.320960e+01
3.340373e+01
3.360472e+01
3.380450e+01
3.401671e+01
3.424479e+01
3.447886e+01
3.476338e+01
3.503070e+01
3.537638e+01
3.586850e+01
3.641426e+01
3.729378e+01
3.882490e+01
4.117919e+01
4.571873e+01
5.041410e+01
4.885705e+01
3.038644e+01
-1.980959e+00
-2.778428e+01
-4.200771e+01
-4.987419e+01
-5.519669e+01
-5.944593e+01
-6.303149e+01
-6.609301e+01
-6.871150e+01
-7.095092e+01
-7.286566e+01
-7.450250e+01
-7.590163e+01
-7.709749e+01
-7.811963e+01
-7.899328e+01
-7.974004e+01
-8.037838e+01
-8.092406e+01
-8.139057e+01
-8.178941e+01
-8.213041e+01
-8.242200e+01
-8.267133e+01
-8.288455e+01
-8.306690e+01
-8.322286e+01
-8.335626e+01
-8.347037e+01
-8.356798e+01
-8.365149e+01
-8.372294e+01
-8.378408e+01
-8.383640e+01
-8.388117e+01
-8.391950e+01
-8.395230e+01
-8.398038e+01
-8.400443e+01
-8.402502e+01
-8.404266e+01
-8.405776e+01
-8.407071e+01
-8.408180e+01
-8.409130e+01
-8.409945e+01
-8.410644e+01
-8.411243e+01
-8.411757e+01
-8.412198e+01
-8.412577e+01
-8.412903e+01
-8.413182e+01
-8.413422e+01
-8.413629e+01
-8.413807e+01
-8.413960e+01
-8.414092e+01
-8.414205e+01
-8.414303e+01
-8.414388e+01
-8.414462e+01
-8.414525e+01
-8.414580e+01
-8.414628e+01
-8.414669e+01
-8.414705e+01
-8.414737e+01
-8.414764e+01
-8.414789e+01
-8.414810e+01
-8.414829e+01
-8.414845e+01
-8.414860e+01
-8.414873e+01
-8.414885e+01
-8.414895e+01
-8.414905e+01
-8.414914e+01
-8.414921e+01
-8.414929e+01
-8.414935e+01
-8.414942e+01
-8.414947e+01
-8.414953e+01
-8.414958e+01
-8.414963e+01
-8.414967e+01
-8.414972e+01
-8.414976e+01
-8.414980e+01
-8.414984e+01
-8.414988e+01
-8.414991e+01
-8.414995e+01
-8.414999e+01
-8.415002e+01
-8.415006e+01
-8.415009e+01
-8.415012e+01
-8.415016e+01
-8.415019e+01
-8.415022e+01
-8.415025e+01
-8.415029e+01
-8.415032e+01
-8.415035e+01
-8.415038e+01
-8.415041e+01
-8.415045e+01
-8.415048e+01
-8.415051e+01
-8.415054e+01
-8.415057e+01
-8.415060e+01
-8.415063e+01
-8.415066e+01
-8.415069e+01
-8.415073e+01
-8.415075e+01
-8.415079e+01
-8.415082e+01
-8.415085e+01
-8.415088e+01
-8.415091e+01
-8.415094e+01
-8.415097e+01
-8.415100e+01
-8.415103e+01
-8.415106e+01
-8.415109e+01
-8.415112e+01
-8.415115e+01
-8.415118e+01
-8.415121e+01
-8.415123e+01
-8.415126e+01
-8.415129e+01
-8.415132e+01
-8.415135e+01
-8.415138e+01
-8.415141e+01
-8.415144e+01
-8.415147e+01
-8.415149e+01
-8.415152e+01
-8.415155e+01
-8.415158e+01
-8.415161e+01
-8.415163e+01
-8.415166e+01
-8.415169e+01
-8.415172e+01
-8.415174e+01
-8.415177e+01
-8.415180e+01
-8.415182e+01
-8.415185e+01
-8.415188e+01
-8.415190e+01
-8.415193e+01
-8.415195e+01
-8.415198e+01
-8.415201e+01
-8.415203e+01
-8.415206e+01
-8.415208e+01
-8.415211e+01
-8.415213e+01
-8.415216e+01
-8.415218e+01
-8.415220e+01
-8.415223e+01
-8.415225e+01
-8.415227e+01
-8.415230e+01
-8.415232e+01
-8.415234e+01
-8.415237e+01
-8.415239e+01
-8.415241e+01
-8.415243e+01
-8.415245e+01
-8.415248e+01
-8.415250e+01
-8.415252e+01
-8.415254e+01
-8.415256e+01
-8.415258e+01
-8.415260e+01
-8.415262e+01
-8.415264e+01
-8.415266e+01
-8.415268e+01
-8.415270e+01
-8.415272e+01
-8.415274e+01
-8.415275e+01
-8.415277e+01
-8.415279e+01
-8.415281e+01
-8.415283e+01
-8.415284e+01
-8.415286e+01
-8.415288e+01
-8.415289e+01
-8.415291e+01
-8.415292e+01
-8.415294e+01
-8.415296e+01
-8.415297e+01
-8.415298e+01
-8.415300e+01
-8.415301e+01
-8.415303e+01
-8.415304e+01
-8.415305e+01
-8.415307e+01
-8.415308e+01
-8.415309e+01
-8.415310e+01
-8.415312e+01
-8.415313e+01
-8.415314e+01
-8.415315e+01
-8.415316e+01
-8.415317e+01
-8.415318e+01
-8.415319e+01
-8.415320e+01
-8.415321e+01
-8.415322e+01
-8.415323e+01
-8.415324e+01
-8.415325e+01
-8.415325e+01
-8.415326e+01
-8.415327e+01
-8.415327e+01
-8.415328e+01
-8.415329e+01
-8.415329e+01
-8.415330e+01
-8.415330e+01
-8.415331e+01
-8.415331e+01
-8.415332e+01
-8.415332e+01
-8.415333e+01
-8.415333e+01
-8.415333e+01
-8.415333e+01
-8.415334e+01
-8.415334e+01
-8.415334e+01
-8.415334e+01
-8.415334e+01
-8.415334e+01
-8.415335e+01
-8.415335e+01
-8.415335e+01
-8.415335e+01
-8.415334e+01
-8.415334e+01
-8.415334e+01
-8.415334e+01
-8.415334e+01
-8.415334e+01
-8.415333e+01
-8.415333e+01
-8.415333e+01
-8.415332e+01
-8.415332e+01
-8.415331e+01
-8.415331e+01
-8.415330e+01
-8.415330e+01
-8.415329e+01
-8.415329e+01
-8.415328e+01
-8.415327e+01
-8.415327e+01
-8.415326e+01
-8.415325e+01
-8.415324e+01
-8.415323e+01
-8.415323e+01
-8.415322e+01
-8.415321e+01
-8.415320e+01
-8.415319e+01
-8.415318e+01
-8.415317e+01
-8.415316e+01
-8.415314e+01
-8.415313e+01
-8.415312e+01
-8.415311e+01
-8.415309e+01
-8.415308e+01
-8.415307e+01
-8.415305e+01
-8.415304e+01
-8.415303e+01
-8.415301e+01
-8.415300e+01
-8.415298e+01
-8.415297e+01
-8.415295e+01
-8.415293e+01
-8.415292e+01
-8.415290e+01
-8.415288e+01
-8.415286e+01
-8.415285e+01
-8.415283e+01
-8.415281e+01
-8.415279e+01
-8.415277e+01
-8.415275e+01
-8.415273e+01
-8.415271e+01
-8.415269e+01
-8.415267e+01
-8.415265e+01
-8.415263e+01
-8.415261e+01
-8.415259e+01
-8.415257e+01
-8.415254e+01
-8.415252e+01
-8.415250e+01
-8.415248e+01
-8.415245e+01
-8.415243e+01
-8.415241e+01
-8.415238e+01
-8.415236e+01
-8.415233e+01
-8.415231e+01
-8.415228e+01
-8.415226e+01
-8.415223e+01
-8.415221e+01
-8.415218e+01
-8.415216e+01
-8.415213e+01
-8.415210e+01
-8.415208e+01
-8.415205e+01
-8.415203e+01
-8.415200e+01
-8.415197e+01
-8.415194e+01
-8.415192e+01
-8.415189e+01
-8.415186e+01
-8.415183e+01
-8.415181e+01
-8.415178e+01
-8.415175e+01
-8.415173e+01
-8.415170e+01
-8.415167e+01
-8.415164e+01
-8.415162e+01
-8.415159e+01
-8.415156e+01
-8.415153e+01
-8.415151e+01
-8.415148e+01
-8.415145e+01
-8.415143e+01
-8.415140e+01
-8.415137e+01
-8.415135e+01
-8.415132e+01
-8.415130e+01
-8.415127e+01
-8.415125e+01
-8.415122e+01
-8.415120e+01
-8.415118e+01
-8.415115e+01
-8.415113e+01
-8.415111e+01
-8.415109e+01
-8.415107e+01
-8.415105e+01
-8.415103e+01
-8.415101e+01
-8.415099e+01
-8.415097e+01
-8.415096e+01
-8.415094e+01
-8.415093e+01
-8.415091e+01
-8.415090e+01
-8.415088e+01
-8.415087e+01
-8.415086e+01
-8.415085e+01
-8.415084e+01
-8.415084e+01
-8.415083e+01
-8.415083e+01
-8.415083e+01
