# vtk DataFile Version 3.0
Monodomain MVF
ASCII
DATASET POLYDATA
POINTS 501 float
0.000000e+00 0.000000e+00 0.000000e+00
1.000000e-02 0.000000e+00 0.000000e+00
2.000000e-02 0.000000e+00 0.000000e+00
3.000000e-02 0.000000e+00 0.000000e+00
4.000000e-02 0.000000e+00 0.000000e+00
5.000000e-02 0.000000e+00 0.000000e+00
6.000000e-02 0.000000e+00 0.000000e+00
7.000000e-02 0.000000e+00 0.000000e+00
8.000000e-02 0.000000e+00 0.000000e+00
9.000000e-02 0.000000e+00 0.000000e+00
1.000000e-01 0.000000e+00 0.000000e+00
1.100000e-01 0.000000e+00 0.000000e+00
1.200000e-01 0.000000e+00 0.000000e+00
1.300000e-01 0.000000e+00 0.000000e+00
1.400000e-01 0.000000e+00 0.000000e+00
1.500000e-01 0.000000e+00 0.000000e+00
1.600000e-01 0.000000e+00 0.000000e+00
1.700000e-01 0.000000e+00 0.000000e+00
1.800000e-01 0.000000e+00 0.000000e+00
1.900000e-01 0.000000e+00 0.000000e+00
2.000000e-01 0.000000e+00 0.000000e+00
2.100000e-01 0.000000e+00 0.000000e+00
2.200000e-01 0.000000e+00 0.000000e+00
2.300000e-01 0.000000e+00 0.000000e+00
2.400000e-01 0.000000e+00 0.000000e+00
2.500000e-01 0.000000e+00 0.000000e+00
2.600000e-01 0.000000e+00 0.000000e+00
2.700000e-01 0.000000e+00 0.000000e+00
2.800000e-01 0.000000e+00 0.000000e+00
2.900000e-01 0.000000e+00 0.000000e+00
3.000000e-01 0.000000e+00 0.000000e+00
3.100000e-01 0.000000e+00 0.000000e+00
3.200000e-01 0.000000e+00 0.000000e+00
3.300000e-01 0.000000e+00 0.000000e+00
3.400000e-01 0.000000e+00 0.000000e+00
3.500000e-01 0.000000e+00 0.000000e+00
3.600000e-01 0.000000e+00 0.000000e+00
3.700000e-01 0.000000e+00 0.000000e+00
3.800000e-01 0.000000e+00 0.000000e+00
3.900000e-01 0.000000e+00 0.000000e+00
4.000000e-01 0.000000e+00 0.000000e+00
4.100000e-01 0.000000e+00 0.000000e+00
4.200000e-01 0.000000e+00 0.000000e+00
4.300000e-01 0.000000e+00 0.000000e+00
4.400000e-01 0.000000e+00 0.000000e+00
4.500000e-01 0.000000e+00 0.000000e+00
4.600000e-01 0.000000e+00 0.000000e+00
4.700000e-01 0.000000e+00 0.000000e+00
4.800000e-01 0.000000e+00 0.000000e+00
4.900000e-01 0.000000e+00 0.000000e+00
5.000000e-01 0.000000e+00 0.000000e+00
5.100000e-01 0.000000e+00 0.000000e+00
5.200000e-01 0.000000e+00 0.000000e+00
5.300000e-01 0.000000e+00 0.000000e+00
5.400000e-01 0.000000e+00 0.000000e+00
5.500000e-01 0.000000e+00 0.000000e+00
5.600000e-01 0.000000e+00 0.000000e+00
5.700000e-01 0.000000e+00 0.000000e+00
5.800000e-01 0.000000e+00 0.000000e+00
5.900000e-01 0.000000e+00 0.000000e+00
6.000000e-01 0.000000e+00 0.000000e+00
6.100000e-01 0.000000e+00 0.000000e+00
6.200000e-01 0.000000e+00 0.000000e+00
6.300000e-01 0.000000e+00 0.000000e+00
6.400000e-01 0.000000e+00 0.000000e+00
6.500000e-01 0.000000e+00 0.000000e+00
6.600000e-01 0.000000e+00 0.000000e+00
6.700000e-01 0.000000e+00 0.000000e+00
6.800000e-01 0.000000e+00 0.000000e+00
6.900000e-01 0.000000e+00 0.000000e+00
7.000000e-01 0.000000e+00 0.000000e+00
7.100000e-01 0.000000e+00 0.000000e+00
7.200000e-01 0.000000e+00 0.000000e+00
7.300000e-01 0.000000e+00 0.000000e+00
7.400000e-01 0.000000e+00 0.000000e+00
7.500000e-01 0.000000e+00 0.000000e+00
7.600000e-01 0.000000e+00 0.000000e+00
7.700000e-01 0.000000e+00 0.000000e+00
7.800000e-01 0.000000e+00 0.000000e+00
7.900000e-01 0.000000e+00 0.000000e+00
8.000000e-01 0.000000e+00 0.000000e+00
8.100000e-01 0.000000e+00 0.000000e+00
8.200000e-01 0.000000e+00 0.000000e+00
8.300000e-01 0.000000e+00 0.000000e+00
8.400000e-01 0.000000e+00 0.000000e+00
8.500000e-01 0.000000e+00 0.000000e+00
8.600000e-01 0.000000e+00 0.000000e+00
8.700000e-01 0.000000e+00 0.000000e+00
8.800000e-01 0.000000e+00 0.000000e+00
8.900000e-01 0.000000e+00 0.000000e+00
9.000000e-01 0.000000e+00 0.000000e+00
9.100000e-01 0.000000e+00 0.000000e+00
9.200000e-01 0.000000e+00 0.000000e+00
9.300000e-01 0.000000e+00 0.000000e+00
9.400000e-01 0.000000e+00 0.000000e+00
9.500000e-01 0.000000e+00 0.000000e+00
9.600000e-01 0.000000e+00 0.000000e+00
9.700000e-01 0.000000e+00 0.000000e+00
9.800000e-01 0.000000e+00 0.000000e+00
9.900000e-01 0.000000e+00 0.000000e+00
1.000000e+00 0.000000e+00 0.000000e+00
1.010000e+00 0.000000e+00 0.000000e+00
1.020000e+00 0.000000e+00 0.000000e+00
1.030000e+00 0.000000e+00 0.000000e+00
1.040000e+00 0.000000e+00 0.000000e+00
1.050000e+00 0.000000e+00 0.000000e+00
1.060000e+00 0.000000e+00 0.000000e+00
1.070000e+00 0.000000e+00 0.000000e+00
1.080000e+00 0.000000e+00 0.000000e+00
1.090000e+00 0.000000e+00 0.000000e+00
1.100000e+00 0.000000e+00 0.000000e+00
1.110000e+00 0.000000e+00 0.000000e+00
1.120000e+00 0.000000e+00 0.000000e+00
1.130000e+00 0.000000e+00 0.000000e+00
1.140000e+00 0.000000e+00 0.000000e+00
1.150000e+00 0.000000e+00 0.000000e+00
1.160000e+00 0.000000e+00 0.000000e+00
1.170000e+00 0.000000e+00 0.000000e+00
1.180000e+00 0.000000e+00 0.000000e+00
1.190000e+00 0.000000e+00 0.000000e+00
1.200000e+00 0.000000e+00 0.000000e+00
1.210000e+00 0.000000e+00 0.000000e+00
1.220000e+00 0.000000e+00 0.000000e+00
1.230000e+00 0.000000e+00 0.000000e+00
1.240000e+00 0.000000e+00 0.000000e+00
1.250000e+00 0.000000e+00 0.000000e+00
1.260000e+00 0.000000e+00 0.000000e+00
1.270000e+00 0.000000e+00 0.000000e+00
1.280000e+00 0.000000e+00 0.000000e+00
1.290000e+00 0.000000e+00 0.000000e+00
1.300000e+00 0.000000e+00 0.000000e+00
1.310000e+00 0.000000e+00 0.000000e+00
1.320000e+00 0.000000e+00 0.000000e+00
1.330000e+00 0.000000e+00 0.000000e+00
1.340000e+00 0.000000e+00 0.000000e+00
1.350000e+00 0.000000e+00 0.000000e+00
1.360000e+00 0.000000e+00 0.000000e+00
1.370000e+00 0.000000e+00 0.000000e+00
1.380000e+00 0.000000e+00 0.000000e+00
1.390000e+00 0.000000e+00 0.000000e+00
1.400000e+00 0.000000e+00 0.000000e+00
1.410000e+00 0.000000e+00 0.000000e+00
1.420000e+00 0.000000e+00 0.000000e+00
1.430000e+00 0.000000e+00 0.000000e+00
1.440000e+00 0.000000e+00 0.000000e+00
1.450000e+00 0.000000e+00 0.000000e+00
1.460000e+00 0.000000e+00 0.000000e+00
1.470000e+00 0.000000e+00 0.000000e+00
1.480000e+00 0.000000e+00 0.000000e+00
1.490000e+00 0.000000e+00 0.000000e+00
1.500000e+00 0.000000e+00 0.000000e+00
1.510000e+00 0.000000e+00 0.000000e+00
1.520000e+00 0.000000e+00 0.000000e+00
1.530000e+00 0.000000e+00 0.000000e+00
1.540000e+00 0.000000e+00 0.000000e+00
1.550000e+00 0.000000e+00 0.000000e+00
1.560000e+00 0.000000e+00 0.000000e+00
1.570000e+00 0.000000e+00 0.000000e+00
1.580000e+00 0.000000e+00 0.000000e+00
1.590000e+00 0.000000e+00 0.000000e+00
1.600000e+00 0.000000e+00 0.000000e+00
1.610000e+00 0.000000e+00 0.000000e+00
1.620000e+00 0.000000e+00 0.000000e+00
1.630000e+00 0.000000e+00 0.000000e+00
1.640000e+00 0.000000e+00 0.000000e+00
1.650000e+00 0.000000e+00 0.000000e+00
1.660000e+00 0.000000e+00 0.000000e+00
1.670000e+00 0.000000e+00 0.000000e+00
1.680000e+00 0.000000e+00 0.000000e+00
1.690000e+00 0.000000e+00 0.000000e+00
1.700000e+00 0.000000e+00 0.000000e+00
1.710000e+00 0.000000e+00 0.000000e+00
1.720000e+00 0.000000e+00 0.000000e+00
1.730000e+00 0.000000e+00 0.000000e+00
1.740000e+00 0.000000e+00 0.000000e+00
1.750000e+00 0.000000e+00 0.000000e+00
1.760000e+00 0.000000e+00 0.000000e+00
1.770000e+00 0.000000e+00 0.000000e+00
1.780000e+00 0.000000e+00 0.000000e+00
1.790000e+00 0.000000e+00 0.000000e+00
1.800000e+00 0.000000e+00 0.000000e+00
1.810000e+00 0.000000e+00 0.000000e+00
1.820000e+00 0.000000e+00 0.000000e+00
1.830000e+00 0.000000e+00 0.000000e+00
1.840000e+00 0.000000e+00 0.000000e+00
1.850000e+00 0.000000e+00 0.000000e+00
1.860000e+00 0.000000e+00 0.000000e+00
1.870000e+00 0.000000e+00 0.000000e+00
1.880000e+00 0.000000e+00 0.000000e+00
1.890000e+00 0.000000e+00 0.000000e+00
1.900000e+00 0.000000e+00 0.000000e+00
1.910000e+00 0.000000e+00 0.000000e+00
1.920000e+00 0.000000e+00 0.000000e+00
1.930000e+00 0.000000e+00 0.000000e+00
1.940000e+00 0.000000e+00 0.000000e+00
1.950000e+00 0.000000e+00 0.000000e+00
1.960000e+00 0.000000e+00 0.000000e+00
1.970000e+00 0.000000e+00 0.000000e+00
1.980000e+00 0.000000e+00 0.000000e+00
1.990000e+00 0.000000e+00 0.000000e+00
2.000000e+00 0.000000e+00 0.000000e+00
2.010000e+00 0.000000e+00 0.000000e+00
2.020000e+00 0.000000e+00 0.000000e+00
2.030000e+00 0.000000e+00 0.000000e+00
2.040000e+00 0.000000e+00 0.000000e+00
2.050000e+00 0.000000e+00 0.000000e+00
2.060000e+00 0.000000e+00 0.000000e+00
2.070000e+00 0.000000e+00 0.000000e+00
2.080000e+00 0.000000e+00 0.000000e+00
2.090000e+00 0.000000e+00 0.000000e+00
2.100000e+00 0.000000e+00 0.000000e+00
2.110000e+00 0.000000e+00 0.000000e+00
2.120000e+00 0.000000e+00 0.000000e+00
2.130000e+00 0.000000e+00 0.000000e+00
2.140000e+00 0.000000e+00 0.000000e+00
2.150000e+00 0.000000e+00 0.000000e+00
2.160000e+00 0.000000e+00 0.000000e+00
2.170000e+00 0.000000e+00 0.000000e+00
2.180000e+00 0.000000e+00 0.000000e+00
2.190000e+00 0.000000e+00 0.000000e+00
2.200000e+00 0.000000e+00 0.000000e+00
2.210000e+00 0.000000e+00 0.000000e+00
2.220000e+00 0.000000e+00 0.000000e+00
2.230000e+00 0.000000e+00 0.000000e+00
2.240000e+00 0.000000e+00 0.000000e+00
2.250000e+00 0.000000e+00 0.000000e+00
2.260000e+00 0.000000e+00 0.000000e+00
2.270000e+00 0.000000e+00 0.000000e+00
2.280000e+00 0.000000e+00 0.000000e+00
2.290000e+00 0.000000e+00 0.000000e+00
2.300000e+00 0.000000e+00 0.000000e+00
2.310000e+00 0.000000e+00 0.000000e+00
2.320000e+00 0.000000e+00 0.000000e+00
2.330000e+00 0.000000e+00 0.000000e+00
2.340000e+00 0.000000e+00 0.000000e+00
2.350000e+00 0.000000e+00 0.000000e+00
2.360000e+00 0.000000e+00 0.000000e+00
2.370000e+00 0.000000e+00 0.000000e+00
2.380000e+00 0.000000e+00 0.000000e+00
2.390000e+00 0.000000e+00 0.000000e+00
2.400000e+00 0.000000e+00 0.000000e+00
2.410000e+00 0.000000e+00 0.000000e+00
2.420000e+00 0.000000e+00 0.000000e+00
2.430000e+00 0.000000e+00 0.000000e+00
2.440000e+00 0.000000e+00 0.000000e+00
2.450000e+00 0.000000e+00 0.000000e+00
2.460000e+00 0.000000e+00 0.000000e+00
2.470000e+00 0.000000e+00 0.000000e+00
2.480000e+00 0.000000e+00 0.000000e+00
2.490000e+00 0.000000e+00 0.000000e+00
2.500000e+00 0.000000e+00 0.000000e+00
2.510000e+00 0.000000e+00 0.000000e+00
2.520000e+00 0.000000e+00 0.000000e+00
2.530000e+00 0.000000e+00 0.000000e+00
[...]
POINT_DATA 501
SCALARS vm float 1
LOOKUP_TABLE default
3.596723e+00
3.597043e+00
3.597681e+00
3.598628e+00
3.599875e+00
3.601437e+00
3.603220e+00
3.605212e+00
3.607418e+00
3.609833e+00
3.612430e+00
3.615211e+00
3.618171e+00
3.621292e+00
3.624571e+00
3.628007e+00
3.631583e+00
3.635298e+00
3.639150e+00
3.643122e+00
3.647217e+00
3.651431e+00
3.655747e+00
3.660172e+00
3.664701e+00
3.669316e+00
3.674028e+00
3.678828e+00
3.683704e+00
3.688663e+00
3.693699e+00
3.698799e+00
3.703974e+00
3.709208e+00
3.714507e+00
3.719867e+00
3.725275e+00
3.730742e+00
3.736262e+00
3.741822e+00
3.747433e+00
3.753087e+00
3.758777e+00
3.764513e+00
3.770279e+00
3.776085e+00
3.781927e+00
3.787792e+00
3.793693e+00
3.799625e+00
3.805575e+00
3.811558e+00
3.817561e+00
3.823588e+00
3.829640e+00
3.835705e+00
3.841794e+00
3.847905e+00
3.854024e+00
3.860165e+00
3.866322e+00
3.872488e+00
3.878674e+00
3.884866e+00
3.891073e+00
3.897296e+00
3.903520e+00
3.909760e+00
3.916011e+00
3.922263e+00
3.928530e+00
3.934800e+00
3.941078e+00
3.947367e+00
3.953654e+00
3.959952e+00
3.966258e+00
3.972560e+00
3.978874e+00
3.985190e+00
3.991506e+00
3.997831e+00
4.004152e+00
4.010481e+00
4.016816e+00
4.023144e+00
4.029481e+00
4.035820e+00
4.042154e+00
4.048497e+00
4.054835e+00
4.061177e+00
4.067523e+00
4.073862e+00
4.080208e+00
4.086555e+00
4.092895e+00
4.099243e+00
4.105585e+00
4.111929e+00
4.118278e+00
4.124617e+00
4.130963e+00
4.137310e+00
4.143648e+00
4.149993e+00
4.156336e+00
4.162673e+00
4.169017e+00
4.175352e+00
4.181691e+00
4.188033e+00
4.194365e+00
4.200703e+00
4.207040e+00
4.213369e+00
4.219705e+00
4.226034e+00
4.232364e+00
4.238698e+00
4.245021e+00
4.251350e+00
4.257679e+00
4.263999e+00
4.270326e+00
4.276646e+00
4.282967e+00
4.289291e+00
4.295605e+00
4.301924e+00
4.308244e+00
4.314555e+00
4.320872e+00
4.327186e+00
4.333495e+00
4.339809e+00
4.346115e+00
4.352424e+00
4.358736e+00
4.365038e+00
4.371345e+00
4.377652e+00
4.383951e+00
4.390256e+00
4.396555e+00
4.402855e+00
4.409158e+00
4.415451e+00
4.421750e+00
4.428050e+00
4.434341e+00
4.440638e+00
4.446930e+00
4.453222e+00
4.459518e+00
4.465804e+00
4.472095e+00
4.478388e+00
4.484672e+00
4.490962e+00
4.497251e+00
4.503533e+00
4.509823e+00
4.516104e+00
4.522388e+00
4.528676e+00
4.534954e+00
4.541238e+00
4.547521e+00
4.553798e+00
4.560082e+00
4.566358e+00
4.572637e+00
4.578920e+00
4.585193e+00
4.591472e+00
4.597753e+00
4.604024e+00
4.610303e+00
4.616577e+00
4.622851e+00
4.629130e+00
4.635399e+00
4.641674e+00
4.647952e+00
4.654220e+00
4.660495e+00
4.666769e+00
4.673037e+00
4.679312e+00
4.685579e+00
4.691851e+00
4.698126e+00
4.704391e+00
4.710663e+00
4.716936e+00
4.723201e+00
4.729474e+00
4.735740e+00
4.742008e+00
4.748281e+00
4.754545e+00
4.760815e+00
4.767086e+00
4.773350e+00
4.779620e+00
4.785886e+00
4.792152e+00
4.798424e+00
4.804687e+00
4.810955e+00
4.817226e+00
4.823488e+00
4.829757e+00
4.836025e+00
4.842288e+00
4.848558e+00
4.854821e+00
4.861087e+00
4.867358e+00
4.873619e+00
4.879888e+00
4.886157e+00
4.892418e+00
4.898688e+00
4.904951e+00
4.911217e+00
4.917488e+00
4.923749e+00
4.930016e+00
4.936286e+00
4.942548e+00
4.948817e+00
4.955082e+00
4.961346e+00
4.967617e+00
4.973878e+00
4.980145e+00
4.986416e+00
4.992677e+00
4.998946e+00
5.005214e+00
5.011477e+00
5.017747e+00
5.024010e+00
5.030277e+00
5.036548e+00
5.042810e+00
5.049078e+00
5.055348e+00
5.061611e+00
5.067881e+00
5.074145e+00
5.080412e+00
5.086684e+00
5.092946e+00
5.099215e+00
5.105486e+00
5.111748e+00
5.118019e+00
5.124286e+00
5.130551e+00
5.136823e+00
5.143087e+00
5.149355e+00
5.155627e+00
5.161890e+00
5.168161e+00
5.174431e+00
5.180695e+00
5.186967e+00
5.193231e+00
5.199500e+00
5.205773e+00
5.212036e+00
5.218306e+00
5.224578e+00
5.230842e+00
5.237114e+00
5.243379e+00
5.249647e+00
5.255920e+00
5.262184e+00
5.268454e+00
5.274726e+00
5.280990e+00
5.287261e+00
5.293530e+00
5.299795e+00
5.306068e+00
5.312332e+00
5.318601e+00
5.324874e+00
5.331137e+00
5.337407e+00
5.343677e+00
5.349941e+00
5.356213e+00
5.362477e+00
5.368745e+00
5.375017e+00
5.381279e+00
5.387548e+00
5.393818e+00
5.400080e+00
5.406350e+00
5.412614e+00
5.418879e+00
5.425150e+00
5.431411e+00
5.437677e+00
5.443947e+00
5.450206e+00
5.456474e+00
5.462738e+00
5.468999e+00
5.475267e+00
5.481525e+00
5.487788e+00
5.494055e+00
5.500311e+00
5.506575e+00
5.512838e+00
5.519094e+00
5.525357e+00
5.531612e+00
5.537871e+00
5.544133e+00
5.550385e+00
5.556643e+00
5.562902e+00
5.569152e+00
5.575410e+00
5.581661e+00
5.587912e+00
5.594168e+00
5.600414e+00
5.606665e+00
5.612917e+00
5.619159e+00
5.625409e+00
5.631654e+00
5.637895e+00
5.644142e+00
5.650379e+00
5.656619e+00
5.662863e+00
5.669095e+00
5.675333e+00
5.681569e+00
5.687797e+00
5.694032e+00
5.700257e+00
5.706484e+00
5.712715e+00
5.718933e+00
5.725156e+00
5.731378e+00
5.737591e+00
5.743809e+00
5.750019e+00
5.756228e+00
5.762440e+00
5.768641e+00
5.774844e+00
5.781047e+00
5.787239e+00
5.793435e+00
5.799627e+00
5.805811e+00
5.811999e+00
5.818176e+00
5.824353e+00
5.830531e+00
5.836696e+00
5.842864e+00
5.849028e+00
5.855182e+00
5.861339e+00
5.867484e+00
5.873629e+00
5.879773e+00
5.885903e+00
5.892034e+00
5.898162e+00
5.904276e+00
5.910393e+00
5.916498e+00
5.922599e+00
5.928699e+00
5.934784e+00
5.940867e+00
5.946947e+00
5.953011e+00
5.959076e+00
5.965131e+00
5.971174e+00
5.977217e+00
5.983243e+00
5.989266e+00
5.995284e+00
6.001283e+00
6.007280e+00
6.013268e+00
6.019239e+00
6.025209e+00
6.031160e+00
6.037104e+00
6.043042e+00
6.048958e+00
6.054869e+00
6.060769e+00
6.066649e+00
6.072524e+00
6.078379e+00
6.084222e+00
6.090057e+00
6.095867e+00
6.101667e+00
6.107456e+00
6.113218e+00
6.118972e+00
6.124708e+00
6.130420e+00
6.136122e+00
6.141797e+00
6.147457e+00
6.153101e+00
6.158715e+00
6.164315e+00
6.169894e+00
6.175442e+00
6.180977e+00
6.186479e+00
6.191960e+00
6.197422e+00
6.202847e+00
6.208251e+00
6.213629e+00
6.218971e+00
6.224292e+00
6.229576e+00
6.234830e+00
6.240059e+00
6.245244e+00
6.250401e+00
6.255526e+00
6.260606e+00
6.265656e+00
6.270667e+00
6.275633e+00
6.280567e+00
6.285450e+00
6.290295e+00
6.295100e+00
6.299849e+00
6.304560e+00
6.309222e+00
6.313827e+00
6.318390e+00
6.322893e+00
6.327345e+00
6.331747e+00
6.336081e+00
6.340363e+00
6.344586e+00
6.348739e+00
6.352835e+00
6.356861e+00
6.360818e+00
6.364712e+00
6.368524e+00
6.372268e+00
6.375938e+00
6.379520e+00
6.383029e+00
6.386453e+00
6.389786e+00
6.393038e+00
6.396189e+00
6.399251e+00
6.402218e+00
6.405075e+00
6.407834e+00
6.410486e+00
6.413018e+00
6.415442e+00
6.417741e+00
6.419911e+00
6.421959e+00
6.423864e+00
6.425627e+00
6.427248e+00
6.428718e+00
6.430014e+00
6.431137e+00
6.432095e+00
6.432884e+00
6.433482e+00
6.433884e+00
6.434087e+00
