# vtk DataFile Version 3.0
Monodomain MVF
ASCII
DATASET POLYDATA
POINTS 501 float
0.000000e+00 0.000000e+00 0.000000e+00
1.000000e-02 0.000000e+00 0.000000e+00
2.000000e-02 0.000000e+00 0.000000e+00
3.000000e-02 0.000000e+00 0.000000e+00
4.000000e-02 0.000000e+00 0.000000e+00
5.000000e-02 0.000000e+00 0.000000e+00
6.000000e-02 0.000000e+00 0.000000e+00
7.000000e-02 0.000000e+00 0.000000e+00
8.000000e-02 0.000000e+00 0.000000e+00
9.000000e-02 0.000000e+00 0.000000e+00
1.000000e-01 0.000000e+00 0.000000e+00
1.100000e-01 0.000000e+00 0.000000e+00
1.200000e-01 0.000000e+00 0.000000e+00
1.300000e-01 0.000000e+00 0.000000e+00
1.400000e-01 0.000000e+00 0.000000e+00
1.500000e-01 0.000000e+00 0.000000e+00
1.600000e-01 0.000000e+00 0.000000e+00
1.700000e-01 0.000000e+00 0.000000e+00
1.800000e-01 0.000000e+00 0.000000e+00
1.900000e-01 0.000000e+00 0.000000e+00
2.000000e-01 0.000000e+00 0.000000e+00
2.100000e-01 0.000000e+00 0.000000e+00
2.200000e-01 0.000000e+00 0.000000e+00
2.300000e-01 0.000000e+00 0.000000e+00
2.400000e-01 0.000000e+00 0.000000e+00
2.500000e-01 0.000000e+00 0.000000e+00
2.600000e-01 0.000000e+00 0.000000e+00
2.700000e-01 0.000000e+00 0.000000e+00
2.800000e-01 0.000000e+00 0.000000e+00
2.900000e-01 0.000000e+00 0.000000e+00
3.000000e-01 0.000000e+00 0.000000e+00
3.100000e-01 0.000000e+00 0.000000e+00
3.200000e-01 0.000000e+00 0.000000e+00
3.300000e-01 0.000000e+00 0.000000e+00
3.400000e-01 0.000000e+00 0.000000e+00
3.500000e-01 0.000000e+00 0.000000e+00
3.600000e-01 0.000000e+00 0.000000e+00
3.700000e-01 0.000000e+00 0.000000e+00
3.800000e-01 0.000000e+00 0.000000e+00
3.900000e-01 0.000000e+00 0.000000e+00
4.000000e-01 0.000000e+00 0.000000e+00
4.100000e-01 0.000000e+00 0.000000e+00
4.200000e-01 0.000000e+00 0.000000e+00
4.300000e-01 0.000000e+00 0.000000e+00
4.400000e-01 0.000000e+00 0.000000e+00
4.500000e-01 0.000000e+00 0.000000e+00
4.600000e-01 0.000000e+00 0.000000e+00
4.700000e-01 0.000000e+00 0.000000e+00
4.800000e-01 0.000000e+00 0.000000e+00
4.900000e-01 0.000000e+00 0.000000e+00
5.000000e-01 0.000000e+00 0.000000e+00
5.100000e-01 0.000000e+00 0.000000e+00
5.200000e-01 0.000000e+00 0.000000e+00
5.300000e-01 0.000000e+00 0.000000e+00
5.400000e-01 0.000000e+00 0.000000e+00
5.500000e-01 0.000000e+00 0.000000e+00
5.600000e-01 0.000000e+00 0.000000e+00
5.700000e-01 0.000000e+00 0.000000e+00
5.800000e-01 0.000000e+00 0.000000e+00
5.900000e-01 0.000000e+00 0.000000e+00
6.000000e-01 0.000000e+00 0.000000e+00
6.100000e-01 0.000000e+00 0.000000e+00
6.200000e-01 0.000000e+00 0.000000e+00
6.300000e-01 0.000000e+00 0.000000e+00
6.400000e-01 0.000000e+00 0.000000e+00
6.500000e-01 0.000000e+00 0.000000e+00
6.600000e-01 0.000000e+00 0.000000e+00
6.700000e-01 0.000000e+00 0.000000e+00
6.800000e-01 0.000000e+00 0.000000e+00
6.900000e-01 0.000000e+00 0.000000e+00
7.000000e-01 0.000000e+00 0.000000e+00
7.100000e-01 0.000000e+00 0.000000e+00
7.200000e-01 0.000000e+00 0.000000e+00
7.300000e-01 0.000000e+00 0.000000e+00
7.400000e-01 0.000000e+00 0.000000e+00
7.500000e-01 0.000000e+00 0.000000e+00
7.600000e-01 0.000000e+00 0.000000e+00
7.700000e-01 0.000000e+00 0.000000e+00
7.800000e-01 0.000000e+00 0.000000e+00
7.900000e-01 0.000000e+00 0.000000e+00
8.000000e-01 0.000000e+00 0.000000e+00
8.100000e-01 0.000000e+00 0.000000e+00
8.200000e-01 0.000000e+00 0.000000e+00
8.300000e-01 0.000000e+00 0.000000e+00
8.400000e-01 0.000000e+00 0.000000e+00
8.500000e-01 0.000000e+00 0.000000e+00
8.600000e-01 0.000000e+00 0.000000e+00
8.700000e-01 0.000000e+00 0.000000e+00
8.800000e-01 0.000000e+00 0.000000e+00
8.900000e-01 0.000000e+00 0.000000e+00
9.000000e-01 0.000000e+00 0.000000e+00
9.100000e-01 0.000000e+00 0.000000e+00
9.200000e-01 0.000000e+00 0.000000e+00
9.300000e-01 0.000000e+00 0.000000e+00
9.400000e-01 0.000000e+00 0.000000e+00
9.500000e-01 0.000000e+00 0.000000e+00
9.600000e-01 0.000000e+00 0.000000e+00
9.700000e-01 0.000000e+00 0.000000e+00
9.800000e-01 0.000000e+00 0.000000e+00
9.900000e-01 0.000000e+00 0.000000e+00
1.000000e+00 0.000000e+00 0.000000e+00
1.010000e+00 0.000000e+00 0.000000e+00
1.020000e+00 0.000000e+00 0.000000e+00
1.030000e+00 0.000000e+00 0.000000e+00
1.040000e+00 0.000000e+00 0.000000e+00
1.050000e+00 0.000000e+00 0.000000e+00
1.060000e+00 0.000000e+00 0.000000e+00
1.070000e+00 0.000000e+00 0.000000e+00
1.080000e+00 0.000000e+00 0.000000e+00
1.090000e+00 0.000000e+00 0.000000e+00
1.100000e+00 0.000000e+00 0.000000e+00
1.110000e+00 0.000000e+00 0.000000e+00
1.120000e+00 0.000000e+00 0.000000e+00
1.130000e+00 0.000000e+00 0.000000e+00
1.140000e+00 0.000000e+00 0.000000e+00
1.150000e+00 0.000000e+00 0.000000e+00
1.160000e+00 0.000000e+00 0.000000e+00
1.170000e+00 0.000000e+00 0.000000e+00
1.180000e+00 0.000000e+00 0.000000e+00
1.190000e+00 0.000000e+00 0.000000e+00
1.200000e+00 0.000000e+00 0.000000e+00
1.210000e+00 0.000000e+00 0.000000e+00
1.220000e+00 0.000000e+00 0.000000e+00
1.230000e+00 0.000000e+00 0.000000e+00
1.240000e+00 0.000000e+00 0.000000e+00
1.250000e+00 0.000000e+00 0.000000e+00
1.260000e+00 0.000000e+00 0.000000e+00
1.270000e+00 0.000000e+00 0.000000e+00
1.280000e+00 0.000000e+00 0.000000e+00
1.290000e+00 0.000000e+00 0.000000e+00
1.300000e+00 0.000000e+00 0.000000e+00
1.310000e+00 0.000000e+00 0.000000e+00
1.320000e+00 0.000000e+00 0.000000e+00
1.330000e+00 0.000000e+00 0.000000e+00
1.340000e+00 0.000000e+00 0.000000e+00
1.350000e+00 0.000000e+00 0.000000e+00
1.360000e+00 0.000000e+00 0.000000e+00
1.370000e+00 0.000000e+00 0.000000e+00
1.380000e+00 0.000000e+00 0.000000e+00
1.390000e+00 0.000000e+00 0.000000e+00
1.400000e+00 0.000000e+00 0.000000e+00
1.410000e+00 0.000000e+00 0.000000e+00
1.420000e+00 0.000000e+00 0.000000e+00
1.430000e+00 0.000000e+00 0.000000e+00
1.440000e+00 0.000000e+00 0.000000e+00
1.450000e+00 0.000000e+00 0.000000e+00
1.460000e+00 0.000000e+00 0.000000e+00
1.470000e+00 0.000000e+00 0.000000e+00
1.480000e+00 0.000000e+00 0.000000e+00
1.490000e+00 0.000000e+00 0.000000e+00
1.500000e+00 0.000000e+00 0.000000e+00
1.510000e+00 0.000000e+00 0.000000e+00
1.520000e+00 0.000000e+00 0.000000e+00
1.530000e+00 0.000000e+00 0.000000e+00
1.540000e+00 0.000000e+00 0.000000e+00
1.550000e+00 0.000000e+00 0.000000e+00
1.560000e+00 0.000000e+00 0.000000e+00
1.570000e+00 0.000000e+00 0.000000e+00
1.580000e+00 0.000000e+00 0.000000e+00
1.590000e+00 0.000000e+00 0.000000e+00
1.600000e+00 0.000000e+00 0.000000e+00
1.610000e+00 0.000000e+00 0.000000e+00
1.620000e+00 0.000000e+00 0.000000e+00
1.630000e+00 0.000000e+00 0.000000e+00
1.640000e+00 0.000000e+00 0.000000e+00
1.650000e+00 0.000000e+00 0.000000e+00
1.660000e+00 0.000000e+00 0.000000e+00
1.670000e+00 0.000000e+00 0.000000e+00
1.680000e+00 0.000000e+00 0.000000e+00
1.690000e+00 0.000000e+00 0.000000e+00
1.700000e+00 0.000000e+00 0.000000e+00
1.710000e+00 0.000000e+00 0.000000e+00
1.720000e+00 0.000000e+00 0.000000e+00
1.730000e+00 0.000000e+00 0.000000e+00
1.740000e+00 0.000000e+00 0.000000e+00
1.750000e+00 0.000000e+00 0.000000e+00
1.760000e+00 0.000000e+00 0.000000e+00
1.770000e+00 0.000000e+00 0.000000e+00
1.780000e+00 0.000000e+00 0.000000e+00
1.790000e+00 0.000000e+00 0.000000e+00
1.800000e+00 0.000000e+00 0.000000e+00
1.810000e+00 0.000000e+00 0.000000e+00
1.820000e+00 0.000000e+00 0.000000e+00
1.830000e+00 0.000000e+00 0.000000e+00
1.840000e+00 0.000000e+00 0.000000e+00
1.850000e+00 0.000000e+00 0.000000e+00
1.860000e+00 0.000000e+00 0.000000e+00
1.870000e+00 0.000000e+00 0.000000e+00
1.880000e+00 0.000000e+00 0.000000e+00
1.890000e+00 0.000000e+00 0.000000e+00
1.900000e+00 0.000000e+00 0.000000e+00
1.910000e+00 0.000000e+00 0.000000e+00
1.920000e+00 0.000000e+00 0.000000e+00
1.930000e+00 0.000000e+00 0.000000e+00
1.940000e+00 0.000000e+00 0.000000e+00
1.950000e+00 0.000000e+00 0.000000e+00
1.960000e+00 0.000000e+00 0.000000e+00
1.970000e+00 0.000000e+00 0.000000e+00
1.980000e+00 0.000000e+00 0.000000e+00
1.990000e+00 0.000000e+00 0.000000e+00
2.000000e+00 0.000000e+00 0.000000e+00
2.010000e+00 0.000000e+00 0.000000e+00
2.020000e+00 0.000000e+00 0.000000e+00
2.030000e+00 0.000000e+00 0.000000e+00
2.040000e+00 0.000000e+00 0.000000e+00
2.050000e+00 0.000000e+00 0.000000e+00
2.060000e+00 0.000000e+00 0.000000e+00
2.070000e+00 0.000000e+00 0.000000e+00
2.080000e+00 0.000000e+00 0.000000e+00
2.090000e+00 0.000000e+00 0.000000e+00
2.100000e+00 0.000000e+00 0.000000e+00
2.110000e+00 0.000000e+00 0.000000e+00
2.120000e+00 0.000000e+00 0.000000e+00
2.130000e+00 0.000000e+00 0.000000e+00
2.140000e+00 0.000000e+00 0.000000e+00
2.150000e+00 0.000000e+00 0.000000e+00
2.160000e+00 0.000000e+00 0.000000e+00
2.170000e+00 0.000000e+00 0.000000e+00
2.180000e+00 0.000000e+00 0.000000e+00
2.190000e+00 0.000000e+00 0.000000e+00
2.200000e+00 0.000000e+00 0.000000e+00
2.210000e+00 0.000000e+00 0.000000e+00
2.220000e+00 0.000000e+00 0.000000e+00
2.230000e+00 0.000000e+00 0.000000e+00
2.240000e+00 0.000000e+00 0.000000e+00
2.250000e+00 0.000000e+00 0.000000e+00
2.260000e+00 0.000000e+00 0.000000e+00
2.270000e+00 0.000000e+00 0.000000e+00
2.280000e+00 0.000000e+00 0.000000e+00
2.290000e+00 0.000000e+00 0.000000e+00
2.300000e+00 0.000000e+00 0.000000e+00
2.310000e+00 0.000000e+00 0.000000e+00
2.320000e+00 0.000000e+00 0.000000e+00
2.330000e+00 0.000000e+00 0.000000e+00
2.340000e+00 0.000000e+00 0.000000e+00
2.350000e+00 0.000000e+00 0.000000e+00
2.360000e+00 0.000000e+00 0.000000e+00
2.370000e+00 0.000000e+00 0.000000e+00
2.380000e+00 0.000000e+00 0.000000e+00
2.390000e+00 0.000000e+00 0.000000e+00
2.400000e+00 0.000000e+00 0.000000e+00
2.410000e+00 0.000000e+00 0.000000e+00
2.420000e+00 0.000000e+00 0.000000e+00
2.430000e+00 0.000000e+00 0.000000e+00
2.440000e+00 0.000000e+00 0.000000e+00
2.450000e+00 0.000000e+00 0.000000e+00
2.460000e+00 0.000000e+00 0.000000e+00
2.470000e+00 0.000000e+00 0.000000e+00
2.480000e+00 0.000000e+00 0.000000e+00
2.490000e+00 0.000000e+00 0.000000e+00
2.500000e+00 0.000000e+00 0.000000e+00
2.510000e+00 0.000000e+00 0.000000e+00
2.520000e+00 0.000000e+00 0.000000e+00
2.530000e+00 0.000000e+00 0.000000e+00
[...]
POINT_DATA 501
SCALARS vm float 1
LOOKUP_TABLE default
-8.061582e+01
-8.061574e+01
-8.061558e+01
-8.061533e+01
-8.061500e+01
-8.061454e+01
-8.061406e+01
-8.061350e+01
-8.061288e+01
-8.061218e+01
-8.061141e+01
-8.061058e+01
-8.060967e+01
-8.060869e+01
-8.060765e+01
-8.060653e+01
-8.060535e+01
-8.060410e+01
-8.060279e+01
-8.060140e+01
-8.059996e+01
-8.059844e+01
-8.059687e+01
-8.059522e+01
-8.059352e+01
-8.059175e+01
-8.058991e+01
-8.058802e+01
-8.058606e+01
-8.058403e+01
-8.058195e+01
-8.057980e+01
-8.057759e+01
-8.057532e+01
-8.057299e+01
-8.057060e+01
-8.056814e+01
-8.056563e+01
-8.056305e+01
-8.056042e+01
-8.055772e+01
-8.055497e+01
-8.055216e+01
-8.054928e+01
-8.054635e+01
-8.054336e+01
-8.054031e+01
-8.053720e+01
-8.053404e+01
-8.053081e+01
-8.052753e+01
-8.052419e+01
-8.052079e+01
-8.051734e+01
-8.051382e+01
-8.051025e+01
-8.050663e+01
-8.050294e+01
-8.049920e+01
-8.049541e+01
-8.049155e+01
-8.048764e+01
-8.048368e+01
-8.047965e+01
-8.047558e+01
-8.047144e+01
-8.046725e+01
-8.046301e+01
-8.045871e+01
-8.045436e+01
-8.044995e+01
-8.044548e+01
-8.044096e+01
-8.043639e+01
-8.043176e+01
-8.042708e+01
-8.042234e+01
-8.041755e+01
-8.041271e+01
-8.040781e+01
-8.040286e+01
-8.039785e+01
-8.039279e+01
-8.038768e+01
-8.038251e+01
-8.037730e+01
-8.037203e+01
-8.036670e+01
-8.036133e+01
-8.035590e+01
-8.035042e+01
-8.034489e+01
-8.033930e+01
-8.033367e+01
-8.032798e+01
-8.032224e+01
-8.031645e+01
-8.031061e+01
-8.030472e+01
-8.029877e+01
-8.029278e+01
-8.028673e+01
-8.028064e+01
-8.027449e+01
-8.026829e+01
-8.026205e+01
-8.025575e+01
-8.024940e+01
-8.024301e+01
-8.023656e+01
-8.023007e+01
-8.022352e+01
-8.021693e+01
-8.021029e+01
-8.020360e+01
-8.019686e+01
-8.019007e+01
-8.018324e+01
-8.017636e+01
-8.016943e+01
-8.016245e+01
-8.015542e+01
-8.014835e+01
-8.014123e+01
-8.013406e+01
-8.012684e+01
-8.011958e+01
-8.011227e+01
-8.010492e+01
-8.009752e+01
-8.009007e+01
-8.008258e+01
-8.007504e+01
-8.006746e+01
-8.005983e+01
-8.005215e+01
-8.004443e+01
-8.003667e+01
-8.002886e+01
-8.002101e+01
-8.001311e+01
-8.000517e+01
-7.999719e+01
-7.998916e+01
-7.998108e+01
-7.997297e+01
-7.996481e+01
-7.995661e+01
-7.994837e+01
-7.994008e+01
-7.993175e+01
-7.992338e+01
-7.991497e+01
-7.990652e+01
-7.989802e+01
-7.988948e+01
-7.988091e+01
-7.987229e+01
-7.986363e+01
-7.985493e+01
-7.984619e+01
-7.983741e+01
-7.982859e+01
-7.981974e+01
-7.981084e+01
-7.980190e+01
-7.979293e+01
-7.978392e+01
-7.977486e+01
-7.976577e+01
-7.975665e+01
-7.974748e+01
-7.973828e+01
-7.972904e+01
-7.971976e+01
-7.971045e+01
-7.970110e+01
-7.969172e+01
-7.968229e+01
-7.967284e+01
-7.966335e+01
-7.965382e+01
-7.964426e+01
-7.963466e+01
-7.962503e+01
-7.961536e+01
-7.960567e+01
-7.959593e+01
-7.958617e+01
-7.957637e+01
-7.956654e+01
-7.955668e+01
-7.954678e+01
-7.953685e+01
-7.952689e+01
-7.951690e+01
-7.950688e+01
-7.949683e+01
-7.948675e+01
-7.947664e+01
-7.946649e+01
-7.945632e+01
-7.944612e+01
-7.943589e+01
-7.942563e+01
-7.941535e+01
-7.940503e+01
-7.939469e+01
-7.938432e+01
-7.937392e+01
-7.936350e+01
-7.935305e+01
-7.934257e+01
-7.933207e+01
-7.932154e+01
-7.931099e+01
-7.930041e+01
-7.928981e+01
-7.927919e+01
-7.926854e+01
-7.925786e+01
-7.924717e+01
-7.923645e+01
-7.922571e+01
-7.921494e+01
-7.920416e+01
-7.919335e+01
-7.918252e+01
-7.917168e+01
-7.916081e+01
-7.914992e+01
-7.913901e+01
-7.912808e+01
-7.911713e+01
-7.910617e+01
-7.909519e+01
-7.908419e+01
-7.907317e+01
-7.906213e+01
-7.905108e+01
-7.904001e+01
-7.902893e+01
-7.901783e+01
-7.900671e+01
-7.899558e+01
-7.898444e+01
-7.897328e+01
-7.896211e+01
-7.895092e+01
-7.893972e+01
-7.892851e+01
-7.891729e+01
-7.890606e+01
-7.889481e+01
-7.888356e+01
-7.887229e+01
-7.886102e+01
-7.884973e+01
-7.883844e+01
-7.882713e+01
-7.881582e+01
-7.880450e+01
-7.879317e+01
-7.878184e+01
-7.877050e+01
-7.875915e+01
-7.874780e+01
-7.873644e+01
-7.872508e+01
-7.871371e+01
-7.870234e+01
-7.869097e+01
-7.867959e+01
-7.866821e+01
-7.865682e+01
-7.864544e+01
-7.863405e+01
-7.862267e+01
-7.861128e+01
-7.859989e+01
-7.858851e+01
-7.857712e+01
-7.856574e+01
-7.855435e+01
-7.854297e+01
-7.853160e+01
-7.852022e+01
-7.850885e+01
-7.849748e+01
-7.848612e+01
-7.847476e+01
-7.846341e+01
-7.845207e+01
-7.844073e+01
-7.842940e+01
-7.841807e+01
-7.840676e+01
-7.839545e+01
-7.838415e+01
-7.837286e+01
-7.836158e+01
-7.835031e+01
-7.833905e+01
-7.832780e+01
-7.831657e+01
-7.830535e+01
-7.829414e+01
-7.828294e+01
-7.827175e+01
-7.826059e+01
-7.824943e+01
-7.823829e+01
-7.822717e+01
-7.821606e+01
-7.820497e+01
-7.819390e+01
-7.818284e+01
-7.817181e+01
-7.816079e+01
-7.814979e+01
-7.813881e+01
-7.812785e+01
-7.811691e+01
-7.810599e+01
-7.809510e+01
-7.808422e+01
-7.807337e+01
-7.806254e+01
-7.805174e+01
-7.804096e+01
-7.803021e+01
-7.801948e+01
-7.800878e+01
-7.799810e+01
-7.798745e+01
-7.797682e+01
-7.796623e+01
-7.795566e+01
-7.794513e+01
-7.793462e+01
-7.792414e+01
-7.791369e+01
-7.790327e+01
-7.789289e+01
-7.788253e+01
-7.787221e+01
-7.786192e+01
-7.785167e+01
-7.784145e+01
-7.783126e+01
-7.782111e+01
-7.781099e+01
-7.780091e+01
-7.779087e+01
-7.778086e+01
-7.777089e+01
-7.776096e+01
-7.775107e+01
-7.774122e+01
-7.773140e+01
-7.772163e+01
-7.771190e+01
-7.770220e+01
-7.769255e+01
-7.768295e+01
-7.767338e+01
-7.766386e+01
-7.765438e+01
-7.764494e+01
-7.763555e+01
-7.762621e+01
-7.761691e+01
-7.760765e+01
-7.759845e+01
-7.758929e+01
-7.758017e+01
-7.757111e+01
-7.756209e+01
-7.755313e+01
-7.754421e+01
-7.753534e+01
-7.752652e+01
-7.751776e+01
-7.750904e+01
-7.750038e+01
-7.749177e+01
-7.748321e+01
-7.747471e+01
-7.746626e+01
-7.745787e+01
-7.744953e+01
-7.744124e+01
-7.743301e+01
-7.742484e+01
-7.741672e+01
-7.740866e+01
-7.740066e+01
-7.739271e+01
-7.738483e+01
-7.737700e+01
-7.736923e+01
-7.736153e+01
-7.735388e+01
-7.734629e+01
-7.733877e+01
-7.733131e+01
-7.732391e+01
-7.731657e+01
-7.730929e+01
-7.730208e+01
-7.729493e+01
-7.728785e+01
-7.728083e+01
-7.727387e+01
-7.726699e+01
-7.726016e+01
-7.725341e+01
-7.724672e+01
-7.724009e+01
-7.723354e+01
-7.722705e+01
-7.722063e+01
-7.721428e+01
-7.720800e+01
-7.720179e+01
-7.719565e+01
-7.718958e+01
-7.718358e+01
-7.717765e+01
-7.717180e+01
-7.716601e+01
-7.716030e+01
-7.715466e+01
-7.714909e+01
-7.714360e+01
-7.713818e+01
-7.713283e+01
-7.712756e+01
-7.712236e+01
-7.711724e+01
-7.711219e+01
-7.710722e+01
-7.710233e+01
-7.709751e+01
-7.709277e+01
-7.708810e+01
-7.708351e+01
-7.707900e+01
-7.707457e+01
-7.707022e+01
-7.706594e+01
-7.706175e+01
-7.705763e+01
-7.705359e+01
-7.704963e+01
-7.704575e+01
-7.704196e+01
-7.703824e+01
-7.703460e+01
-7.703104e+01
-7.702757e+01
-7.702418e+01
-7.702086e+01
-7.701763e+01
-7.701448e+01
-7.701142e+01
-7.700844e+01
-7.700553e+01
-7.700272e+01
-7.699998e+01
-7.699733e+01
-7.699476e+01
-7.699227e+01
-7.698987e+01
-7.698755e+01
-7.698532e+01
-7.698317e+01
-7.698110e+01
-7.697912e+01
-7.697723e+01
-7.697541e+01
-7.697368e+01
-7.697204e+01
-7.697048e+01
-7.696901e+01
-7.696762e+01
-7.696632e+01
-7.696510e+01
-7.696397e+01
-7.696292e+01
-7.696196e+01
-7.696108e+01
-7.696029e+01
-7.695959e+01
-7.695897e+01
-7.695844e+01
-7.695800e+01
-7.695765e+01
-7.695738e+01
-7.695720e+01
-7.695711e+01
