# vtk DataFile Version 3.0
Monodomain MVF
ASCII
DATASET POLYDATA
POINTS 501 float
0.000000e+00 0.000000e+00 0.000000e+00
1.000000e-02 0.000000e+00 0.000000e+00
2.000000e-02 0.000000e+00 0.000000e+00
3.000000e-02 0.000000e+00 0.000000e+00
4.000000e-02 0.000000e+00 0.000000e+00
5.000000e-02 0.000000e+00 0.000000e+00
6.000000e-02 0.000000e+00 0.000000e+00
7.000000e-02 0.000000e+00 0.000000e+00
8.000000e-02 0.000000e+00 0.000000e+00
9.000000e-02 0.000000e+00 0.000000e+00
1.000000e-01 0.000000e+00 0.000000e+00
1.100000e-01 0.000000e+00 0.000000e+00
1.200000e-01 0.000000e+00 0.000000e+00
1.300000e-01 0.000000e+00 0.000000e+00
1.400000e-01 0.000000e+00 0.000000e+00
1.500000e-01 0.000000e+00 0.000000e+00
1.600000e-01 0.000000e+00 0.000000e+00
1.700000e-01 0.000000e+00 0.000000e+00
1.800000e-01 0.000000e+00 0.000000e+00
1.900000e-01 0.000000e+00 0.000000e+00
2.000000e-01 0.000000e+00 0.000000e+00
2.100000e-01 0.000000e+00 0.000000e+00
2.200000e-01 0.000000e+00 0.000000e+00
2.300000e-01 0.000000e+00 0.000000e+00
2.400000e-01 0.000000e+00 0.000000e+00
2.500000e-01 0.000000e+00 0.000000e+00
2.600000e-01 0.000000e+00 0.000000e+00
2.700000e-01 0.000000e+00 0.000000e+00
2.800000e-01 0.000000e+00 0.000000e+00
2.900000e-01 0.000000e+00 0.000000e+00
3.000000e-01 0.000000e+00 0.000000e+00
3.100000e-01 0.000000e+00 0.000000e+00
3.200000e-01 0.000000e+00 0.000000e+00
3.300000e-01 0.000000e+00 0.000000e+00
3.400000e-01 0.000000e+00 0.000000e+00
3.500000e-01 0.000000e+00 0.000000e+00
3.600000e-01 0.000000e+00 0.000000e+00
3.700000e-01 0.000000e+00 0.000000e+00
3.800000e-01 0.000000e+00 0.000000e+00
3.900000e-01 0.000000e+00 0.000000e+00
4.000000e-01 0.000000e+00 0.000000e+00
4.100000e-01 0.000000e+00 0.000000e+00
4.200000e-01 0.000000e+00 0.000000e+00
4.300000e-01 0.000000e+00 0.000000e+00
4.400000e-01 0.000000e+00 0.000000e+00
4.500000e-01 0.000000e+00 0.000000e+00
4.600000e-01 0.000000e+00 0.000000e+00
4.700000e-01 0.000000e+00 0.000000e+00
4.800000e-01 0.000000e+00 0.000000e+00
4.900000e-01 0.000000e+00 0.000000e+00
5.000000e-01 0.000000e+00 0.000000e+00
5.100000e-01 0.000000e+00 0.000000e+00
5.200000e-01 0.000000e+00 0.000000e+00
5.300000e-01 0.000000e+00 0.000000e+00
5.400000e-01 0.000000e+00 0.000000e+00
5.500000e-01 0.000000e+00 0.000000e+00
5.600000e-01 0.000000e+00 0.000000e+00
5.700000e-01 0.000000e+00 0.000000e+00
5.800000e-01 0.000000e+00 0.000000e+00
5.900000e-01 0.000000e+00 0.000000e+00
6.000000e-01 0.000000e+00 0.000000e+00
6.100000e-01 0.000000e+00 0.000000e+00
6.200000e-01 0.000000e+00 0.000000e+00
6.300000e-01 0.000000e+00 0.000000e+00
6.400000e-01 0.000000e+00 0.000000e+00
6.500000e-01 0.000000e+00 0.000000e+00
6.600000e-01 0.000000e+00 0.000000e+00
6.700000e-01 0.000000e+00 0.000000e+00
6.800000e-01 0.000000e+00 0.000000e+00
6.900000e-01 0.000000e+00 0.000000e+00
7.000000e-01 0.000000e+00 0.000000e+00
7.100000e-01 0.000000e+00 0.000000e+00
7.200000e-01 0.000000e+00 0.000000e+00
7.300000e-01 0.000000e+00 0.000000e+00
7.400000e-01 0.000000e+00 0.000000e+00
7.500000e-01 0.000000e+00 0.000000e+00
7.600000e-01 0.000000e+00 0.000000e+00
7.700000e-01 0.000000e+00 0.000000e+00
7.800000e-01 0.000000e+00 0.000000e+00
7.900000e-01 0.000000e+00 0.000000e+00
8.000000e-01 0.000000e+00 0.000000e+00
8.100000e-01 0.000000e+00 0.000000e+00
8.200000e-01 0.000000e+00 0.000000e+00
8.300000e-01 0.000000e+00 0.000000e+00
8.400000e-01 0.000000e+00 0.000000e+00
8.500000e-01 0.000000e+00 0.000000e+00
8.600000e-01 0.000000e+00 0.000000e+00
8.700000e-01 0.000000e+00 0.000000e+00
8.800000e-01 0.000000e+00 0.000000e+00
8.900000e-01 0.000000e+00 0.000000e+00
9.000000e-01 0.000000e+00 0.000000e+00
9.100000e-01 0.000000e+00 0.000000e+00
9.200000e-01 0.000000e+00 0.000000e+00
9.300000e-01 0.000000e+00 0.000000e+00
9.400000e-01 0.000000e+00 0.000000e+00
9.500000e-01 0.000000e+00 0.000000e+00
9.600000e-01 0.000000e+00 0.000000e+00
9.700000e-01 0.000000e+00 0.000000e+00
9.800000e-01 0.000000e+00 0.000000e+00
9.900000e-01 0.000000e+00 0.000000e+00
1.000000e+00 0.000000e+00 0.000000e+00
1.010000e+00 0.000000e+00 0.000000e+00
1.020000e+00 0.000000e+00 0.000000e+00
1.030000e+00 0.000000e+00 0.000000e+00
1.040000e+00 0.000000e+00 0.000000e+00
1.050000e+00 0.000000e+00 0.000000e+00
1.060000e+00 0.000000e+00 0.000000e+00
1.070000e+00 0.000000e+00 0.000000e+00
1.080000e+00 0.000000e+00 0.000000e+00
1.090000e+00 0.000000e+00 0.000000e+00
1.100000e+00 0.000000e+00 0.000000e+00
1.110000e+00 0.000000e+00 0.000000e+00
1.120000e+00 0.000000e+00 0.000000e+00
1.130000e+00 0.000000e+00 0.000000e+00
1.140000e+00 0.000000e+00 0.000000e+00
1.150000e+00 0.000000e+00 0.000000e+00
1.160000e+00 0.000000e+00 0.000000e+00
1.170000e+00 0.000000e+00 0.000000e+00
1.180000e+00 0.000000e+00 0.000000e+00
1.190000e+00 0.000000e+00 0.000000e+00
1.200000e+00 0.000000e+00 0.000000e+00
1.210000e+00 0.000000e+00 0.000000e+00
1.220000e+00 0.000000e+00 0.000000e+00
1.230000e+00 0.000000e+00 0.000000e+00
1.240000e+00 0.000000e+00 0.000000e+00
1.250000e+00 0.000000e+00 0.000000e+00
1.260000e+00 0.000000e+00 0.000000e+00
1.270000e+00 0.000000e+00 0.000000e+00
1.280000e+00 0.000000e+00 0.000000e+00
1.290000e+00 0.000000e+00 0.000000e+00
1.300000e+00 0.000000e+00 0.000000e+00
1.310000e+00 0.000000e+00 0.000000e+00
1.320000e+00 0.000000e+00 0.000000e+00
1.330000e+00 0.000000e+00 0.000000e+00
1.340000e+00 0.000000e+00 0.000000e+00
1.350000e+00 0.000000e+00 0.000000e+00
1.360000e+00 0.000000e+00 0.000000e+00
1.370000e+00 0.000000e+00 0.000000e+00
1.380000e+00 0.000000e+00 0.000000e+00
1.390000e+00 0.000000e+00 0.000000e+00
1.400000e+00 0.000000e+00 0.000000e+00
1.410000e+00 0.000000e+00 0.000000e+00
1.420000e+00 0.000000e+00 0.000000e+00
1.430000e+00 0.000000e+00 0.000000e+00
1.440000e+00 0.000000e+00 0.000000e+00
1.450000e+00 0.000000e+00 0.000000e+00
1.460000e+00 0.000000e+00 0.000000e+00
1.470000e+00 0.000000e+00 0.000000e+00
1.480000e+00 0.000000e+00 0.000000e+00
1.490000e+00 0.000000e+00 0.000000e+00
1.500000e+00 0.000000e+00 0.000000e+00
1.510000e+00 0.000000e+00 0.000000e+00
1.520000e+00 0.000000e+00 0.000000e+00
1.530000e+00 0.000000e+00 0.000000e+00
1.540000e+00 0.000000e+00 0.000000e+00
1.550000e+00 0.000000e+00 0.000000e+00
1.560000e+00 0.000000e+00 0.000000e+00
1.570000e+00 0.000000e+00 0.000000e+00
1.580000e+00 0.000000e+00 0.000000e+00
1.590000e+00 0.000000e+00 0.000000e+00
1.600000e+00 0.000000e+00 0.000000e+00
1.610000e+00 0.000000e+00 0.000000e+00
1.620000e+00 0.000000e+00 0.000000e+00
1.630000e+00 0.000000e+00 0.000000e+00
1.640000e+00 0.000000e+00 0.000000e+00
1.650000e+00 0.000000e+00 0.000000e+00
1.660000e+00 0.000000e+00 0.000000e+00
1.670000e+00 0.000000e+00 0.000000e+00
1.680000e+00 0.000000e+00 0.000000e+00
1.690000e+00 0.000000e+00 0.000000e+00
1.700000e+00 0.000000e+00 0.000000e+00
1.710000e+00 0.000000e+00 0.000000e+00
1.720000e+00 0.000000e+00 0.000000e+00
1.730000e+00 0.000000e+00 0.000000e+00
1.740000e+00 0.000000e+00 0.000000e+00
1.750000e+00 0.000000e+00 0.000000e+00
1.760000e+00 0.000000e+00 0.000000e+00
1.770000e+00 0.000000e+00 0.000000e+00
1.780000e+00 0.000000e+00 0.000000e+00
1.790000e+00 0.000000e+00 0.000000e+00
1.800000e+00 0.000000e+00 0.000000e+00
1.810000e+00 0.000000e+00 0.000000e+00
1.820000e+00 0.000000e+00 0.000000e+00
1.830000e+00 0.000000e+00 0.000000e+00
1.840000e+00 0.000000e+00 0.000000e+00
1.850000e+00 0.000000e+00 0.000000e+00
1.860000e+00 0.000000e+00 0.000000e+00
1.870000e+00 0.000000e+00 0.000000e+00
1.880000e+00 0.000000e+00 0.000000e+00
1.890000e+00 0.000000e+00 0.000000e+00
1.900000e+00 0.000000e+00 0.000000e+00
1.910000e+00 0.000000e+00 0.000000e+00
1.920000e+00 0.000000e+00 0.000000e+00
1.930000e+00 0.000000e+00 0.000000e+00
1.940000e+00 0.000000e+00 0.000000e+00
1.950000e+00 0.000000e+00 0.000000e+00
1.960000e+00 0.000000e+00 0.000000e+00
1.970000e+00 0.000000e+00 0.000000e+00
1.980000e+00 0.000000e+00 0.000000e+00
1.990000e+00 0.000000e+00 0.000000e+00
2.000000e+00 0.000000e+00 0.000000e+00
2.010000e+00 0.000000e+00 0.000000e+00
2.020000e+00 0.000000e+00 0.000000e+00
2.030000e+00 0.000000e+00 0.000000e+00
2.040000e+00 0.000000e+00 0.000000e+00
2.050000e+00 0.000000e+00 0.000000e+00
2.060000e+00 0.000000e+00 0.000000e+00
2.070000e+00 0.000000e+00 0.000000e+00
2.080000e+00 0.000000e+00 0.000000e+00
2.090000e+00 0.000000e+00 0.000000e+00
2.100000e+00 0.000000e+00 0.000000e+00
2.110000e+00 0.000000e+00 0.000000e+00
2.120000e+00 0.000000e+00 0.000000e+00
2.130000e+00 0.000000e+00 0.000000e+00
2.140000e+00 0.000000e+00 0.000000e+00
2.150000e+00 0.000000e+00 0.000000e+00
2.160000e+00 0.000000e+00 0.000000e+00
2.170000e+00 0.000000e+00 0.000000e+00
2.180000e+00 0.000000e+00 0.000000e+00
2.190000e+00 0.000000e+00 0.000000e+00
2.200000e+00 0.000000e+00 0.000000e+00
2.210000e+00 0.000000e+00 0.000000e+00
2.220000e+00 0.000000e+00 0.000000e+00
2.230000e+00 0.000000e+00 0.000000e+00
2.240000e+00 0.000000e+00 0.000000e+00
2.250000e+00 0.000000e+00 0.000000e+00
2.260000e+00 0.000000e+00 0.000000e+00
2.270000e+00 0.000000e+00 0.000000e+00
2.280000e+00 0.000000e+00 0.000000e+00
2.290000e+00 0.000000e+00 0.000000e+00
2.300000e+00 0.000000e+00 0.000000e+00
2.310000e+00 0.000000e+00 0.000000e+00
2.320000e+00 0.000000e+00 0.000000e+00
2.330000e+00 0.000000e+00 0.000000e+00
2.340000e+00 0.000000e+00 0.000000e+00
2.350000e+00 0.000000e+00 0.000000e+00
2.360000e+00 0.000000e+00 0.000000e+00
2.370000e+00 0.000000e+00 0.000000e+00
2.380000e+00 0.000000e+00 0.000000e+00
2.390000e+00 0.000000e+00 0.000000e+00
2.400000e+00 0.000000e+00 0.000000e+00
2.410000e+00 0.000000e+00 0.000000e+00
2.420000e+00 0.000000e+00 0.000000e+00
2.430000e+00 0.000000e+00 0.000000e+00
2.440000e+00 0.000000e+00 0.000000e+00
2.450000e+00 0.000000e+00 0.000000e+00
2.460000e+00 0.000000e+00 0.000000e+00
2.470000e+00 0.000000e+00 0.000000e+00
2.480000e+00 0.000000e+00 0.000000e+00
2.490000e+00 0.000000e+00 0.000000e+00
2.500000e+00 0.000000e+00 0.000000e+00
2.510000e+00 0.000000e+00 0.000000e+00
2.520000e+00 0.000000e+00 0.000000e+00
2.530000e+00 0.000000e+00 0.000000e+00
[...]
POINT_DATA 501
SCALARS vm float 1
LOOKUP_TABLE default
-9.195582e+00
-9.195335e+00
-9.194844e+00
-9.194113e+00
-9.193152e+00
-9.191953e+00
-9.190579e+00
-9.189035e+00
-9.187323e+00
-9.185449e+00
-9.183425e+00
-9.181253e+00
-9.178942e+00
-9.176498e+00
-9.173926e+00
-9.171230e+00
-9.168419e+00
-9.165494e+00
-9.162462e+00
-9.159329e+00
-9.156095e+00
-9.152767e+00
-9.149353e+00
-9.145850e+00
-9.142264e+00
-9.138603e+00
-9.134864e+00
-9.131054e+00
-9.127177e+00
-9.123234e+00
-9.119228e+00
-9.115164e+00
-9.111042e+00
-9.106867e+00
-9.102639e+00
-9.098360e+00
-9.094038e+00
-9.089668e+00
-9.085254e+00
-9.080802e+00
-9.076309e+00
-9.071779e+00
-9.067215e+00
-9.062615e+00
-9.057986e+00
-9.053323e+00
-9.048631e+00
-9.043914e+00
-9.039168e+00
-9.034396e+00
-9.029604e+00
-9.024785e+00
-9.019948e+00
-9.015088e+00
-9.010207e+00
-9.005312e+00
-9.000395e+00
-8.995461e+00
-8.990515e+00
-8.985551e+00
-8.980573e+00
-8.975583e+00
-8.970578e+00
-8.965564e+00
-8.960535e+00
-8.955495e+00
-8.950449e+00
-8.945389e+00
-8.940320e+00
-8.935245e+00
-8.930160e+00
-8.925069e+00
-8.919969e+00
-8.914861e+00
-8.909751e+00
-8.904631e+00
-8.899505e+00
-8.894377e+00
-8.889242e+00
-8.884102e+00
-8.878960e+00
-8.873811e+00
-8.868662e+00
-8.863506e+00
-8.858347e+00
-8.853188e+00
-8.848023e+00
-8.842856e+00
-8.837688e+00
-8.832516e+00
-8.827346e+00
-8.822170e+00
-8.816993e+00
-8.811817e+00
-8.806637e+00
-8.801456e+00
-8.796276e+00
-8.791093e+00
-8.785912e+00
-8.780728e+00
-8.775543e+00
-8.770361e+00
-8.765175e+00
-8.759988e+00
-8.754805e+00
-8.749618e+00
-8.744433e+00
-8.739249e+00
-8.734062e+00
-8.728879e+00
-8.723694e+00
-8.718508e+00
-8.713326e+00
-8.708141e+00
-8.702957e+00
-8.697776e+00
-8.692593e+00
-8.687413e+00
-8.682231e+00
-8.677049e+00
-8.671872e+00
-8.666692e+00
-8.661512e+00
-8.656336e+00
-8.651158e+00
-8.645984e+00
-8.640808e+00
-8.635632e+00
-8.630461e+00
-8.625287e+00
-8.620113e+00
-8.614944e+00
-8.609773e+00
-8.604603e+00
-8.599435e+00
-8.594266e+00
-8.589102e+00
-8.583935e+00
-8.578768e+00
-8.573606e+00
-8.568442e+00
-8.563279e+00
-8.558119e+00
-8.552957e+00
-8.547799e+00
-8.542639e+00
-8.537479e+00
-8.532324e+00
-8.527167e+00
-8.522010e+00
-8.516857e+00
-8.511702e+00
-8.506550e+00
-8.501397e+00
-8.496244e+00
-8.491096e+00
-8.485945e+00
-8.480794e+00
-8.475647e+00
-8.470499e+00
-8.465351e+00
-8.460206e+00
-8.455059e+00
-8.449917e+00
-8.444772e+00
-8.439627e+00
-8.434486e+00
-8.429343e+00
-8.424201e+00
-8.419062e+00
-8.413920e+00
-8.408783e+00
-8.403643e+00
-8.398503e+00
-8.393368e+00
-8.388230e+00
-8.383092e+00
-8.377958e+00
-8.372821e+00
-8.367688e+00
-8.362553e+00
-8.357418e+00
-8.352287e+00
-8.347153e+00
-8.342019e+00
-8.336889e+00
-8.331757e+00
-8.326625e+00
-8.321496e+00
-8.316364e+00
-8.311237e+00
-8.306107e+00
-8.300976e+00
-8.295850e+00
-8.290721e+00
-8.285592e+00
-8.280466e+00
-8.275338e+00
-8.270213e+00
-8.265086e+00
-8.259959e+00
-8.254835e+00
-8.249709e+00
-8.244582e+00
-8.239459e+00
-8.234334e+00
-8.229210e+00
-8.224086e+00
-8.218961e+00
-8.213840e+00
-8.208715e+00
-8.203591e+00
-8.198470e+00
-8.193346e+00
-8.188223e+00
-8.183102e+00
-8.177979e+00
-8.172859e+00
-8.167737e+00
-8.162614e+00
-8.157495e+00
-8.152372e+00
-8.147250e+00
-8.142131e+00
-8.137009e+00
-8.131890e+00
-8.126769e+00
-8.121647e+00
-8.116530e+00
-8.111408e+00
-8.106287e+00
-8.101169e+00
-8.096048e+00
-8.090929e+00
-8.085810e+00
-8.080689e+00
-8.075572e+00
-8.070451e+00
-8.065330e+00
-8.060213e+00
-8.055093e+00
-8.049973e+00
-8.044856e+00
-8.039736e+00
-8.034619e+00
-8.029500e+00
-8.024379e+00
-8.019263e+00
-8.014143e+00
-8.009023e+00
-8.003907e+00
-7.998787e+00
-7.993670e+00
-7.988551e+00
-7.983431e+00
-7.978316e+00
-7.973196e+00
-7.968077e+00
-7.962960e+00
-7.957841e+00
-7.952723e+00
-7.947606e+00
-7.942486e+00
-7.937371e+00
-7.932252e+00
-7.927133e+00
-7.922017e+00
-7.916898e+00
-7.911780e+00
-7.906664e+00
-7.901545e+00
-7.896430e+00
-7.891312e+00
-7.886193e+00
-7.881078e+00
-7.875960e+00
-7.870842e+00
-7.865727e+00
-7.860609e+00
-7.855494e+00
-7.850377e+00
-7.845259e+00
-7.840145e+00
-7.835028e+00
-7.829910e+00
-7.824797e+00
-7.819680e+00
-7.814564e+00
-7.809450e+00
-7.804333e+00
-7.799221e+00
-7.794105e+00
-7.788989e+00
-7.783877e+00
-7.778762e+00
-7.773647e+00
-7.768535e+00
-7.763420e+00
-7.758310e+00
-7.753197e+00
-7.748082e+00
-7.742973e+00
-7.737860e+00
-7.732748e+00
-7.727639e+00
-7.722527e+00
-7.717419e+00
-7.712309e+00
-7.707198e+00
-7.702092e+00
-7.696983e+00
-7.691874e+00
-7.686769e+00
-7.681661e+00
-7.676556e+00
-7.671452e+00
-7.666345e+00
-7.661244e+00
-7.656140e+00
-7.651035e+00
-7.645936e+00
-7.640834e+00
-7.635733e+00
-7.630636e+00
-7.625536e+00
-7.620441e+00
-7.615344e+00
-7.610246e+00
-7.605155e+00
-7.600060e+00
-7.594967e+00
-7.589878e+00
-7.584786e+00
-7.579699e+00
-7.574612e+00
-7.569523e+00
-7.564441e+00
-7.559357e+00
-7.554274e+00
-7.549196e+00
-7.544116e+00
-7.539039e+00
-7.533965e+00
-7.528889e+00
-7.523820e+00
-7.518749e+00
-7.513679e+00
-7.508615e+00
-7.503550e+00
-7.498488e+00
-7.493430e+00
-7.488371e+00
-7.483318e+00
-7.478265e+00
-7.473213e+00
-7.468169e+00
-7.463123e+00
-7.458080e+00
-7.453043e+00
-7.448005e+00
-7.442974e+00
-7.437944e+00
-7.432915e+00
-7.427894e+00
-7.422873e+00
-7.417855e+00
-7.412845e+00
-7.407835e+00
-7.402830e+00
-7.397830e+00
-7.392832e+00
-7.387842e+00
-7.382853e+00
-7.377867e+00
-7.372891e+00
-7.367916e+00
-7.362946e+00
-7.357984e+00
-7.353023e+00
-7.348072e+00
-7.343124e+00
-7.338180e+00
-7.333246e+00
-7.328315e+00
-7.323390e+00
-7.318474e+00
-7.313562e+00
-7.308660e+00
-7.303763e+00
-7.298871e+00
-7.293991e+00
-7.289116e+00
-7.284247e+00
-7.279391e+00
-7.274539e+00
-7.269697e+00
-7.264866e+00
-7.260040e+00
-7.255228e+00
-7.250422e+00
-7.245625e+00
-7.240842e+00
-7.236066e+00
-7.231301e+00
-7.226550e+00
-7.221807e+00
-7.217079e+00
-7.212360e+00
-7.207652e+00
-7.202961e+00
-7.198280e+00
-7.193611e+00
-7.188960e+00
-7.184319e+00
-7.179696e+00
-7.175086e+00
-7.170488e+00
-7.165912e+00
-7.161348e+00
-7.156799e+00
-7.152271e+00
-7.147758e+00
-7.143262e+00
-7.138788e+00
-7.134328e+00
-7.129893e+00
-7.125474e+00
-7.121073e+00
-7.116699e+00
-7.112342e+00
-7.108007e+00
-7.103698e+00
-7.099408e+00
-7.095146e+00
-7.090905e+00
-7.086688e+00
-7.082501e+00
-7.078337e+00
-7.074199e+00
-7.070093e+00
-7.066011e+00
-7.061962e+00
-7.057941e+00
-7.053948e+00
-7.049991e+00
-7.046063e+00
-7.042166e+00
-7.038308e+00
-7.034481e+00
-7.030689e+00
-7.026937e+00
-7.023218e+00
-7.019541e+00
-7.015900e+00
-7.012298e+00
-7.008741e+00
-7.005223e+00
-7.001747e+00
-6.998319e+00
-6.994932e+00
-6.991595e+00
-6.988302e+00
-6.985056e+00
-6.981864e+00
-6.978719e+00
-6.975625e+00
-6.972588e+00
-6.969601e+00
-6.966673e+00
-6.963800e+00
-6.960983e+00
-6.958230e+00
-6.955535e+00
-6.952900e+00
-6.950334e+00
-6.947829e+00
-6.945391e+00
-6.943024e+00
-6.940723e+00
-6.938498e+00
-6.936344e+00
-6.934263e+00
-6.932264e+00
-6.930340e+00
-6.928497e+00
-6.926741e+00
-6.925067e+00
-6.923483e+00
-6.921991e+00
-6.920589e+00
-6.919288e+00
-6.918085e+00
-6.916984e+00
-6.915988e+00
-6.915108e+00
-6.914348e+00
-6.913705e+00
-6.913179e+00
-6.912780e+00
-6.912511e+00
-6.912375e+00
