# vtk DataFile Version 3.0
Monodomain MVF
ASCII
DATASET POLYDATA
POINTS 501 float
0.000000e+00 0.000000e+00 0.000000e+00
1.000000e-02 0.000000e+00 0.000000e+00
2.000000e-02 0.000000e+00 0.000000e+00
3.000000e-02 0.000000e+00 0.000000e+00
4.000000e-02 0.000000e+00 0.000000e+00
5.000000e-02 0.000000e+00 0.000000e+00
6.000000e-02 0.000000e+00 0.000000e+00
7.000000e-02 0.000000e+00 0.000000e+00
8.000000e-02 0.000000e+00 0.000000e+00
9.000000e-02 0.000000e+00 0.000000e+00
1.000000e-01 0.000000e+00 0.000000e+00
1.100000e-01 0.000000e+00 0.000000e+00
1.200000e-01 0.000000e+00 0.000000e+00
1.300000e-01 0.000000e+00 0.000000e+00
1.400000e-01 0.000000e+00 0.000000e+00
1.500000e-01 0.000000e+00 0.000000e+00
1.600000e-01 0.000000e+00 0.000000e+00
1.700000e-01 0.000000e+00 0.000000e+00
1.800000e-01 0.000000e+00 0.000000e+00
1.900000e-01 0.000000e+00 0.000000e+00
2.000000e-01 0.000000e+00 0.000000e+00
2.100000e-01 0.000000e+00 0.000000e+00
2.200000e-01 0.000000e+00 0.000000e+00
2.300000e-01 0.000000e+00 0.000000e+00
2.400000e-01 0.000000e+00 0.000000e+00
2.500000e-01 0.000000e+00 0.000000e+00
2.600000e-01 0.000000e+00 0.000000e+00
2.700000e-01 0.000000e+00 0.000000e+00
2.800000e-01 0.000000e+00 0.000000e+00
2.900000e-01 0.000000e+00 0.000000e+00
3.000000e-01 0.000000e+00 0.000000e+00
3.100000e-01 0.000000e+00 0.000000e+00
3.200000e-01 0.000000e+00 0.000000e+00
3.300000e-01 0.000000e+00 0.000000e+00
3.400000e-01 0.000000e+00 0.000000e+00
3.500000e-01 0.000000e+00 0.000000e+00
3.600000e-01 0.000000e+00 0.000000e+00
3.700000e-01 0.000000e+00 0.000000e+00
3.800000e-01 0.000000e+00 0.000000e+00
3.900000e-01 0.000000e+00 0.000000e+00
4.000000e-01 0.000000e+00 0.000000e+00
4.100000e-01 0.000000e+00 0.000000e+00
4.200000e-01 0.000000e+00 0.000000e+00
4.300000e-01 0.000000e+00 0.000000e+00
4.400000e-01 0.000000e+00 0.000000e+00
4.500000e-01 0.000000e+00 0.000000e+00
4.600000e-01 0.000000e+00 0.000000e+00
4.700000e-01 0.000000e+00 0.000000e+00
4.800000e-01 0.000000e+00 0.000000e+00
4.900000e-01 0.000000e+00 0.000000e+00
5.000000e-01 0.000000e+00 0.000000e+00
5.100000e-01 0.000000e+00 0.000000e+00
5.200000e-01 0.000000e+00 0.000000e+00
5.300000e-01 0.000000e+00 0.000000e+00
5.400000e-01 0.000000e+00 0.000000e+00
5.500000e-01 0.000000e+00 0.000000e+00
5.600000e-01 0.000000e+00 0.000000e+00
5.700000e-01 0.000000e+00 0.000000e+00
5.800000e-01 0.000000e+00 0.000000e+00
5.900000e-01 0.000000e+00 0.000000e+00
6.000000e-01 0.000000e+00 0.000000e+00
6.100000e-01 0.000000e+00 0.000000e+00
6.200000e-01 0.000000e+00 0.000000e+00
6.300000e-01 0.000000e+00 0.000000e+00
6.400000e-01 0.000000e+00 0.000000e+00
6.500000e-01 0.000000e+00 0.000000e+00
6.600000e-01 0.000000e+00 0.000000e+00
6.700000e-01 0.000000e+00 0.000000e+00
6.800000e-01 0.000000e+00 0.000000e+00
6.900000e-01 0.000000e+00 0.000000e+00
7.000000e-01 0.000000e+00 0.000000e+00
7.100000e-01 0.000000e+00 0.000000e+00
7.200000e-01 0.000000e+00 0.000000e+00
7.300000e-01 0.000000e+00 0.000000e+00
7.400000e-01 0.000000e+00 0.000000e+00
7.500000e-01 0.000000e+00 0.000000e+00
7.600000e-01 0.000000e+00 0.000000e+00
7.700000e-01 0.000000e+00 0.000000e+00
7.800000e-01 0.000000e+00 0.000000e+00
7.900000e-01 0.000000e+00 0.000000e+00
8.000000e-01 0.000000e+00 0.000000e+00
8.100000e-01 0.000000e+00 0.000000e+00
8.200000e-01 0.000000e+00 0.000000e+00
8.300000e-01 0.000000e+00 0.000000e+00
8.400000e-01 0.000000e+00 0.000000e+00
8.500000e-01 0.000000e+00 0.000000e+00
8.600000e-01 0.000000e+00 0.000000e+00
8.700000e-01 0.000000e+00 0.000000e+00
8.800000e-01 0.000000e+00 0.000000e+00
8.900000e-01 0.000000e+00 0.000000e+00
9.000000e-01 0.000000e+00 0.000000e+00
9.100000e-01 0.000000e+00 0.000000e+00
9.200000e-01 0.000000e+00 0.000000e+00
9.300000e-01 0.000000e+00 0.000000e+00
9.400000e-01 0.000000e+00 0.000000e+00
9.500000e-01 0.000000e+00 0.000000e+00
9.600000e-01 0.000000e+00 0.000000e+00
9.700000e-01 0.000000e+00 0.000000e+00
9.800000e-01 0.000000e+00 0.000000e+00
9.900000e-01 0.000000e+00 0.000000e+00
1.000000e+00 0.000000e+00 0.000000e+00
1.010000e+00 0.000000e+00 0.000000e+00
1.020000e+00 0.000000e+00 0.000000e+00
1.030000e+00 0.000000e+00 0.000000e+00
1.040000e+00 0.000000e+00 0.000000e+00
1.050000e+00 0.000000e+00 0.000000e+00
1.060000e+00 0.000000e+00 0.000000e+00
1.070000e+00 0.000000e+00 0.000000e+00
1.080000e+00 0.000000e+00 0.000000e+00
1.090000e+00 0.000000e+00 0.000000e+00
1.100000e+00 0.000000e+00 0.000000e+00
1.110000e+00 0.000000e+00 0.000000e+00
1.120000e+00 0.000000e+00 0.000000e+00
1.130000e+00 0.000000e+00 0.000000e+00
1.140000e+00 0.000000e+00 0.000000e+00
1.150000e+00 0.000000e+00 0.000000e+00
1.160000e+00 0.000000e+00 0.000000e+00
1.170000e+00 0.000000e+00 0.000000e+00
1.180000e+00 0.000000e+00 0.000000e+00
1.190000e+00 0.000000e+00 0.000000e+00
1.200000e+00 0.000000e+00 0.000000e+00
1.210000e+00 0.000000e+00 0.000000e+00
1.220000e+00 0.000000e+00 0.000000e+00
1.230000e+00 0.000000e+00 0.000000e+00
1.240000e+00 0.000000e+00 0.000000e+00
1.250000e+00 0.000000e+00 0.000000e+00
1.260000e+00 0.000000e+00 0.000000e+00
1.270000e+00 0.000000e+00 0.000000e+00
1.280000e+00 0.000000e+00 0.000000e+00
1.290000e+00 0.000000e+00 0.000000e+00
1.300000e+00 0.000000e+00 0.000000e+00
1.310000e+00 0.000000e+00 0.000000e+00
1.320000e+00 0.000000e+00 0.000000e+00
1.330000e+00 0.000000e+00 0.000000e+00
1.340000e+00 0.000000e+00 0.000000e+00
1.350000e+00 0.000000e+00 0.000000e+00
1.360000e+00 0.000000e+00 0.000000e+00
1.370000e+00 0.000000e+00 0.000000e+00
1.380000e+00 0.000000e+00 0.000000e+00
1.390000e+00 0.000000e+00 0.000000e+00
1.400000e+00 0.000000e+00 0.000000e+00
1.410000e+00 0.000000e+00 0.000000e+00
1.420000e+00 0.000000e+00 0.000000e+00
1.430000e+00 0.000000e+00 0.000000e+00
1.440000e+00 0.000000e+00 0.000000e+00
1.450000e+00 0.000000e+00 0.000000e+00
1.460000e+00 0.000000e+00 0.000000e+00
1.470000e+00 0.000000e+00 0.000000e+00
1.480000e+00 0.000000e+00 0.000000e+00
1.490000e+00 0.000000e+00 0.000000e+00
1.500000e+00 0.000000e+00 0.000000e+00
1.510000e+00 0.000000e+00 0.000000e+00
1.520000e+00 0.000000e+00 0.000000e+00
1.530000e+00 0.000000e+00 0.000000e+00
1.540000e+00 0.000000e+00 0.000000e+00
1.550000e+00 0.000000e+00 0.000000e+00
1.560000e+00 0.000000e+00 0.000000e+00
1.570000e+00 0.000000e+00 0.000000e+00
1.580000e+00 0.000000e+00 0.000000e+00
1.590000e+00 0.000000e+00 0.000000e+00
1.600000e+00 0.000000e+00 0.000000e+00
1.610000e+00 0.000000e+00 0.000000e+00
1.620000e+00 0.000000e+00 0.000000e+00
1.630000e+00 0.000000e+00 0.000000e+00
1.640000e+00 0.000000e+00 0.000000e+00
1.650000e+00 0.000000e+00 0.000000e+00
1.660000e+00 0.000000e+00 0.000000e+00
1.670000e+00 0.000000e+00 0.000000e+00
1.680000e+00 0.000000e+00 0.000000e+00
1.690000e+00 0.000000e+00 0.000000e+00
1.700000e+00 0.000000e+00 0.000000e+00
1.710000e+00 0.000000e+00 0.000000e+00
1.720000e+00 0.000000e+00 0.000000e+00
1.730000e+00 0.000000e+00 0.000000e+00
1.740000e+00 0.000000e+00 0.000000e+00
1.750000e+00 0.000000e+00 0.000000e+00
1.760000e+00 0.000000e+00 0.000000e+00
1.770000e+00 0.000000e+00 0.000000e+00
1.780000e+00 0.000000e+00 0.000000e+00
1.790000e+00 0.000000e+00 0.000000e+00
1.800000e+00 0.000000e+00 0.000000e+00
1.810000e+00 0.000000e+00 0.000000e+00
1.820000e+00 0.000000e+00 0.000000e+00
1.830000e+00 0.000000e+00 0.000000e+00
1.840000e+00 0.000000e+00 0.000000e+00
1.850000e+00 0.000000e+00 0.000000e+00
1.860000e+00 0.000000e+00 0.000000e+00
1.870000e+00 0.000000e+00 0.000000e+00
1.880000e+00 0.000000e+00 0.000000e+00
1.890000e+00 0.000000e+00 0.000000e+00
1.900000e+00 0.000000e+00 0.000000e+00
1.910000e+00 0.000000e+00 0.000000e+00
1.920000e+00 0.000000e+00 0.000000e+00
1.930000e+00 0.000000e+00 0.000000e+00
1.940000e+00 0.000000e+00 0.000000e+00
1.950000e+00 0.000000e+00 0.000000e+00
1.960000e+00 0.000000e+00 0.000000e+00
1.970000e+00 0.000000e+00 0.000000e+00
1.980000e+00 0.000000e+00 0.000000e+00
1.990000e+00 0.000000e+00 0.000000e+00
2.000000e+00 0.000000e+00 0.000000e+00
2.010000e+00 0.000000e+00 0.000000e+00
2.020000e+00 0.000000e+00 0.000000e+00
2.030000e+00 0.000000e+00 0.000000e+00
2.040000e+00 0.000000e+00 0.000000e+00
2.050000e+00 0.000000e+00 0.000000e+00
2.060000e+00 0.000000e+00 0.000000e+00
2.070000e+00 0.000000e+00 0.000000e+00
2.080000e+00 0.000000e+00 0.000000e+00
2.090000e+00 0.000000e+00 0.000000e+00
2.100000e+00 0.000000e+00 0.000000e+00
2.110000e+00 0.000000e+00 0.000000e+00
2.120000e+00 0.000000e+00 0.000000e+00
2.130000e+00 0.000000e+00 0.000000e+00
2.140000e+00 0.000000e+00 0.000000e+00
2.150000e+00 0.000000e+00 0.000000e+00
2.160000e+00 0.000000e+00 0.000000e+00
2.170000e+00 0.000000e+00 0.000000e+00
2.180000e+00 0.000000e+00 0.000000e+00
2.190000e+00 0.000000e+00 0.000000e+00
2.200000e+00 0.000000e+00 0.000000e+00
2.210000e+00 0.000000e+00 0.000000e+00
2.220000e+00 0.000000e+00 0.000000e+00
2.230000e+00 0.000000e+00 0.000000e+00
2.240000e+00 0.000000e+00 0.000000e+00
2.250000e+00 0.000000e+00 0.000000e+00
2.260000e+00 0.000000e+00 0.000000e+00
2.270000e+00 0.000000e+00 0.000000e+00
2.280000e+00 0.000000e+00 0.000000e+00
2.290000e+00 0.000000e+00 0.000000e+00
2.300000e+00 0.000000e+00 0.000000e+00
2.310000e+00 0.000000e+00 0.000000e+00
2.320000e+00 0.000000e+00 0.000000e+00
2.330000e+00 0.000000e+00 0.000000e+00
2.340000e+00 0.000000e+00 0.000000e+00
2.350000e+00 0.000000e+00 0.000000e+00
2.360000e+00 0.000000e+00 0.000000e+00
2.370000e+00 0.000000e+00 0.000000e+00
2.380000e+00 0.000000e+00 0.000000e+00
2.390000e+00 0.000000e+00 0.000000e+00
2.400000e+00 0.000000e+00 0.000000e+00
2.410000e+00 0.000000e+00 0.000000e+00
2.420000e+00 0.000000e+00 0.000000e+00
2.430000e+00 0.000000e+00 0.000000e+00
2.440000e+00 0.000000e+00 0.000000e+00
2.450000e+00 0.000000e+00 0.000000e+00
2.460000e+00 0.000000e+00 0.000000e+00
2.470000e+00 0.000000e+00 0.000000e+00
2.480000e+00 0.000000e+00 0.000000e+00
2.490000e+00 0.000000e+00 0.000000e+00
2.500000e+00 0.000000e+00 0.000000e+00
2.510000e+00 0.000000e+00 0.000000e+00
2.520000e+00 0.000000e+00 0.000000e+00
2.530000e+00 0.000000e+00 0.000000e+00
[...]
POINT_DATA 501
SCALARS vm float 1
LOOKUP_TABLE default
-2.154727e+01
-2.154708e+01
-2.154669e+01
-2.154612e+01
-2.154537e+01
-2.154443e+01
-2.154334e+01
-2.154210e+01
-2.154072e+01
-2.153919e+01
-2.153753e+01
-2.153573e+01
-2.153381e+01
-2.153176e+01
-2.152959e+01
-2.152731e+01
-2.152491e+01
-2.152241e+01
-2.151979e+01
-2.151708e+01
-2.151427e+01
-2.151136e+01
-2.150836e+01
-2.150527e+01
-2.150209e+01
-2.149883e+01
-2.149549e+01
-2.149206e+01
-2.148857e+01
-2.148500e+01
-2.148136e+01
-2.147765e+01
-2.147387e+01
-2.147003e+01
-2.146612e+01
-2.146215e+01
-2.145813e+01
-2.145405e+01
-2.144991e+01
-2.144572e+01
-2.144148e+01
-2.143719e+01
-2.143284e+01
-2.142846e+01
-2.142402e+01
-2.141954e+01
-2.141502e+01
-2.141046e+01
-2.140585e+01
-2.140121e+01
-2.139653e+01
-2.139181e+01
-2.138706e+01
-2.138227e+01
-2.137744e+01
-2.137259e+01
-2.136770e+01
-2.136278e+01
-2.135784e+01
-2.135286e+01
-2.134785e+01
-2.134282e+01
-2.133776e+01
-2.133268e+01
-2.132757e+01
-2.132244e+01
-2.131728e+01
-2.131210e+01
-2.130690e+01
-2.130168e+01
-2.129643e+01
-2.129117e+01
-2.128588e+01
-2.128058e+01
-2.127526e+01
-2.126992e+01
-2.126456e+01
-2.125919e+01
-2.125380e+01
-2.124839e+01
-2.124297e+01
-2.123753e+01
-2.123208e+01
-2.122662e+01
-2.122114e+01
-2.121565e+01
-2.121014e+01
-2.120462e+01
-2.119909e+01
-2.119355e+01
-2.118799e+01
-2.118243e+01
-2.117685e+01
-2.117127e+01
-2.116567e+01
-2.116006e+01
-2.115445e+01
-2.114882e+01
-2.114319e+01
-2.113754e+01
-2.113189e+01
-2.112623e+01
-2.112056e+01
-2.111489e+01
-2.110920e+01
-2.110351e+01
-2.109782e+01
-2.109211e+01
-2.108640e+01
-2.108068e+01
-2.107496e+01
-2.106923e+01
-2.106350e+01
-2.105775e+01
-2.105201e+01
-2.104626e+01
-2.104050e+01
-2.103474e+01
-2.102897e+01
-2.102320e+01
-2.101743e+01
-2.101165e+01
-2.100586e+01
-2.100007e+01
-2.099428e+01
-2.098849e+01
-2.098269e+01
-2.097688e+01
-2.097108e+01
-2.096527e+01
-2.095946e+01
-2.095364e+01
-2.094783e+01
-2.094200e+01
-2.093618e+01
-2.093036e+01
-2.092453e+01
-2.091870e+01
-2.091286e+01
-2.090703e+01
-2.090119e+01
-2.089535e+01
-2.088951e+01
-2.088367e+01
-2.087783e+01
-2.087198e+01
-2.086613e+01
-2.086029e+01
-2.085444e+01
-2.084859e+01
-2.084273e+01
-2.083688e+01
-2.083103e+01
-2.082517e+01
-2.081931e+01
-2.081346e+01
-2.080760e+01
-2.080174e+01
-2.079588e+01
-2.079002e+01
-2.078416e+01
-2.077830e+01
-2.077244e+01
-2.076658e+01
-2.076071e+01
-2.075485e+01
-2.074899e+01
-2.074313e+01
-2.073726e+01
-2.073140e+01
-2.072554e+01
-2.071968e+01
-2.071381e+01
-2.070795e+01
-2.070209e+01
-2.069623e+01
-2.069036e+01
-2.068450e+01
-2.067864e+01
-2.067278e+01
-2.066692e+01
-2.066106e+01
-2.065520e+01
-2.064934e+01
-2.064348e+01
-2.063762e+01
-2.063176e+01
-2.062590e+01
-2.062005e+01
-2.061419e+01
-2.060834e+01
-2.060248e+01
-2.059663e+01
-2.059077e+01
-2.058492e+01
-2.057907e+01
-2.057322e+01
-2.056737e+01
-2.056152e+01
-2.055567e+01
-2.054983e+01
-2.054398e+01
-2.053814e+01
-2.053229e+01
-2.052645e+01
-2.052061e+01
-2.051477e+01
-2.050893e+01
-2.050309e+01
-2.049726e+01
-2.049142e+01
-2.048558e+01
-2.047975e+01
-2.047392e+01
-2.046809e+01
-2.046226e+01
-2.045643e+01
-2.045061e+01
-2.044478e+01
-2.043895e+01
-2.043313e+01
-2.042731e+01
-2.042149e+01
-2.041567e+01
-2.040986e+01
-2.040404e+01
-2.039823e+01
-2.039241e+01
-2.038661e+01
-2.038080e+01
-2.037499e+01
-2.036918e+01
-2.036338e+01
-2.035758e+01
-2.035177e+01
-2.034597e+01
-2.034018e+01
-2.033438e+01
-2.032859e+01
-2.032279e+01
-2.031700e+01
-2.031121e+01
-2.030543e+01
-2.029964e+01
-2.029386e+01
-2.028808e+01
-2.028230e+01
-2.027652e+01
-2.027074e+01
-2.026497e+01
-2.025920e+01
-2.025343e+01
-2.024766e+01
-2.024189e+01
-2.023613e+01
-2.023037e+01
-2.022461e+01
-2.021885e+01
-2.021310e+01
-2.020734e+01
-2.020159e+01
-2.019584e+01
-2.019009e+01
-2.018435e+01
-2.017861e+01
-2.017287e+01
-2.016713e+01
-2.016139e+01
-2.015566e+01
-2.014993e+01
-2.014420e+01
-2.013848e+01
-2.013275e+01
-2.012703e+01
-2.012131e+01
-2.011560e+01
-2.010988e+01
-2.010417e+01
-2.009847e+01
-2.009276e+01
-2.008706e+01
-2.008136e+01
-2.007566e+01
-2.006997e+01
-2.006427e+01
-2.005859e+01
-2.005290e+01
-2.004722e+01
-2.004154e+01
-2.003586e+01
-2.003019e+01
-2.002451e+01
-2.001884e+01
-2.001318e+01
-2.000752e+01
-2.000186e+01
-1.999620e+01
-1.999055e+01
-1.998490e+01
-1.997926e+01
-1.997362e+01
-1.996798e+01
-1.996234e+01
-1.995671e+01
-1.995108e+01
-1.994546e+01
-1.993984e+01
-1.993422e+01
-1.992861e+01
-1.992300e+01
-1.991740e+01
-1.991179e+01
-1.990620e+01
-1.990060e+01
-1.989502e+01
-1.988943e+01
-1.988385e+01
-1.987828e+01
-1.987270e+01
-1.986713e+01
-1.986157e+01
-1.985601e+01
-1.985046e+01
-1.984491e+01
-1.983937e+01
-1.983383e+01
-1.982829e+01
-1.982276e+01
-1.981724e+01
-1.981172e+01
-1.980621e+01
-1.980070e+01
-1.979520e+01
-1.978970e+01
-1.978421e+01
-1.977872e+01
-1.977324e+01
-1.976777e+01
-1.976230e+01
-1.975683e+01
-1.975138e+01
-1.974593e+01
-1.974048e+01
-1.973504e+01
-1.972962e+01
-1.972419e+01
-1.971877e+01
-1.971336e+01
-1.970796e+01
-1.970256e+01
-1.969717e+01
-1.969179e+01
-1.968642e+01
-1.968105e+01
-1.967569e+01
-1.967034e+01
-1.966500e+01
-1.965966e+01
-1.965434e+01
-1.964902e+01
-1.964371e+01
-1.963841e+01
-1.963311e+01
-1.962783e+01
-1.962256e+01
-1.961729e+01
-1.961204e+01
-1.960679e+01
-1.960156e+01
-1.959633e+01
-1.959112e+01
-1.958592e+01
-1.958072e+01
-1.957554e+01
-1.957037e+01
-1.956520e+01
-1.956005e+01
-1.955492e+01
-1.954979e+01
-1.954468e+01
-1.953957e+01
-1.953448e+01
-1.952941e+01
-1.952434e+01
-1.951929e+01
-1.951425e+01
-1.950923e+01
-1.950422e+01
-1.949922e+01
-1.949424e+01
-1.948927e+01
-1.948432e+01
-1.947938e+01
-1.947446e+01
-1.946955e+01
-1.946466e+01
-1.945978e+01
-1.945492e+01
-1.945008e+01
-1.944526e+01
-1.944045e+01
-1.943566e+01
-1.943089e+01
-1.942614e+01
-1.942140e+01
-1.941669e+01
-1.941199e+01
-1.940732e+01
-1.940266e+01
-1.939802e+01
-1.939341e+01
-1.938881e+01
-1.938424e+01
-1.937969e+01
-1.937517e+01
-1.937066e+01
-1.936618e+01
-1.936172e+01
-1.935729e+01
-1.935288e+01
-1.934849e+01
-1.934413e+01
-1.933980e+01
-1.933549e+01
-1.933121e+01
-1.932696e+01
-1.932273e+01
-1.931853e+01
-1.931436e+01
-1.931022e+01
-1.930611e+01
-1.930203e+01
-1.929799e+01
-1.929397e+01
-1.928998e+01
-1.928603e+01
-1.928211e+01
-1.927822e+01
-1.927437e+01
-1.927055e+01
-1.926677e+01
-1.926302e+01
-1.925931e+01
-1.925564e+01
-1.925201e+01
-1.924841e+01
-1.924485e+01
-1.924133e+01
-1.923786e+01
-1.923442e+01
-1.923103e+01
-1.922768e+01
-1.922437e+01
-1.922111e+01
-1.921789e+01
-1.921472e+01
-1.921159e+01
-1.920851e+01
-1.920548e+01
-1.920249e+01
-1.919956e+01
-1.919668e+01
-1.919384e+01
-1.919106e+01
-1.918833e+01
-1.918566e+01
-1.918304e+01
-1.918047e+01
-1.917796e+01
-1.917551e+01
-1.917311e+01
-1.917078e+01
-1.916850e+01
-1.916628e+01
-1.916413e+01
-1.916203e+01
-1.916000e+01
-1.915804e+01
-1.915614e+01
-1.915431e+01
-1.915254e+01
-1.915084e+01
-1.914921e+01
-1.914765e+01
-1.914617e+01
-1.914476e+01
-1.914342e+01
-1.914215e+01
-1.914097e+01
-1.913986e+01
-1.913884e+01
-1.913790e+01
-1.913704e+01
-1.913626e+01
-1.913558e+01
-1.913499e+01
-1.913450e+01
-1.913409e+01
-1.913379e+01
-1.913359e+01
-1.913348e+01
