# vtk DataFile Version 3.0
Monodomain MVF
ASCII
DATASET POLYDATA
POINTS 501 float
0.000000e+00 0.000000e+00 0.000000e+00
1.000000e-02 0.000000e+00 0.000000e+00
2.000000e-02 0.000000e+00 0.000000e+00
3.000000e-02 0.000000e+00 0.000000e+00
4.000000e-02 0.000000e+00 0.000000e+00
5.000000e-02 0.000000e+00 0.000000e+00
6.000000e-02 0.000000e+00 0.000000e+00
7.000000e-02 0.000000e+00 0.000000e+00
8.000000e-02 0.000000e+00 0.000000e+00
9.000000e-02 0.000000e+00 0.000000e+00
1.000000e-01 0.000000e+00 0.000000e+00
1.100000e-01 0.000000e+00 0.000000e+00
1.200000e-01 0.000000e+00 0.000000e+00
1.300000e-01 0.000000e+00 0.000000e+00
1.400000e-01 0.000000e+00 0.000000e+00
1.500000e-01 0.000000e+00 0.000000e+00
1.600000e-01 0.000000e+00 0.000000e+00
1.700000e-01 0.000000e+00 0.000000e+00
1.800000e-01 0.000000e+00 0.000000e+00
1.900000e-01 0.000000e+00 0.000000e+00
2.000000e-01 0.000000e+00 0.000000e+00
2.100000e-01 0.000000e+00 0.000000e+00
2.200000e-01 0.000000e+00 0.000000e+00
2.300000e-01 0.000000e+00 0.000000e+00
2.400000e-01 0.000000e+00 0.000000e+00
2.500000e-01 0.000000e+00 0.000000e+00
2.600000e-01 0.000000e+00 0.000000e+00
2.700000e-01 0.000000e+00 0.000000e+00
2.800000e-01 0.000000e+00 0.000000e+00
2.900000e-01 0.000000e+00 0.000000e+00
3.000000e-01 0.000000e+00 0.000000e+00
3.100000e-01 0.000000e+00 0.000000e+00
3.200000e-01 0.000000e+00 0.000000e+00
3.300000e-01 0.000000e+00 0.000000e+00
3.400000e-01 0.000000e+00 0.000000e+00
3.500000e-01 0.000000e+00 0.000000e+00
3.600000e-01 0.000000e+00 0.000000e+00
3.700000e-01 0.000000e+00 0.000000e+00
3.800000e-01 0.000000e+00 0.000000e+00
3.900000e-01 0.000000e+00 0.000000e+00
4.000000e-01 0.000000e+00 0.000000e+00
4.100000e-01 0.000000e+00 0.000000e+00
4.200000e-01 0.000000e+00 0.000000e+00
4.300000e-01 0.000000e+00 0.000000e+00
4.400000e-01 0.000000e+00 0.000000e+00
4.500000e-01 0.000000e+00 0.000000e+00
4.600000e-01 0.000000e+00 0.000000e+00
4.700000e-01 0.000000e+00 0.000000e+00
4.800000e-01 0.000000e+00 0.000000e+00
4.900000e-01 0.000000e+00 0.000000e+00
5.000000e-01 0.000000e+00 0.000000e+00
5.100000e-01 0.000000e+00 0.000000e+00
5.200000e-01 0.000000e+00 0.000000e+00
5.300000e-01 0.000000e+00 0.000000e+00
5.400000e-01 0.000000e+00 0.000000e+00
5.500000e-01 0.000000e+00 0.000000e+00
5.600000e-01 0.000000e+00 0.000000e+00
5.700000e-01 0.000000e+00 0.000000e+00
5.800000e-01 0.000000e+00 0.000000e+00
5.900000e-01 0.000000e+00 0.000000e+00
6.000000e-01 0.000000e+00 0.000000e+00
6.100000e-01 0.000000e+00 0.000000e+00
6.200000e-01 0.000000e+00 0.000000e+00
6.300000e-01 0.000000e+00 0.000000e+00
6.400000e-01 0.000000e+00 0.000000e+00
6.500000e-01 0.000000e+00 0.000000e+00
6.600000e-01 0.000000e+00 0.000000e+00
6.700000e-01 0.000000e+00 0.000000e+00
6.800000e-01 0.000000e+00 0.000000e+00
6.900000e-01 0.000000e+00 0.000000e+00
7.000000e-01 0.000000e+00 0.000000e+00
7.100000e-01 0.000000e+00 0.000000e+00
7.200000e-01 0.000000e+00 0.000000e+00
7.300000e-01 0.000000e+00 0.000000e+00
7.400000e-01 0.000000e+00 0.000000e+00
7.500000e-01 0.000000e+00 0.000000e+00
7.600000e-01 0.000000e+00 0.000000e+00
7.700000e-01 0.000000e+00 0.000000e+00
7.800000e-01 0.000000e+00 0.000000e+00
7.900000e-01 0.000000e+00 0.000000e+00
8.000000e-01 0.000000e+00 0.000000e+00
8.100000e-01 0.000000e+00 0.000000e+00
8.200000e-01 0.000000e+00 0.000000e+00
8.300000e-01 0.000000e+00 0.000000e+00
8.400000e-01 0.000000e+00 0.000000e+00
8.500000e-01 0.000000e+00 0.000000e+00
8.600000e-01 0.000000e+00 0.000000e+00
8.700000e-01 0.000000e+00 0.000000e+00
8.800000e-01 0.000000e+00 0.000000e+00
8.900000e-01 0.000000e+00 0.000000e+00
9.000000e-01 0.000000e+00 0.000000e+00
9.100000e-01 0.000000e+00 0.000000e+00
9.200000e-01 0.000000e+00 0.000000e+00
9.300000e-01 0.000000e+00 0.000000e+00
9.400000e-01 0.000000e+00 0.000000e+00
9.500000e-01 0.000000e+00 0.000000e+00
9.600000e-01 0.000000e+00 0.000000e+00
9.700000e-01 0.000000e+00 0.000000e+00
9.800000e-01 0.000000e+00 0.000000e+00
9.900000e-01 0.000000e+00 0.000000e+00
1.000000e+00 0.000000e+00 0.000000e+00
1.010000e+00 0.000000e+00 0.000000e+00
1.020000e+00 0.000000e+00 0.000000e+00
1.030000e+00 0.000000e+00 0.000000e+00
1.040000e+00 0.000000e+00 0.000000e+00
1.050000e+00 0.000000e+00 0.000000e+00
1.060000e+00 0.000000e+00 0.000000e+00
1.070000e+00 0.000000e+00 0.000000e+00
1.080000e+00 0.000000e+00 0.000000e+00
1.090000e+00 0.000000e+00 0.000000e+00
1.100000e+00 0.000000e+00 0.000000e+00
1.110000e+00 0.000000e+00 0.000000e+00
1.120000e+00 0.000000e+00 0.000000e+00
1.130000e+00 0.000000e+00 0.000000e+00
1.140000e+00 0.000000e+00 0.000000e+00
1.150000e+00 0.000000e+00 0.000000e+00
1.160000e+00 0.000000e+00 0.000000e+00
1.170000e+00 0.000000e+00 0.000000e+00
1.180000e+00 0.000000e+00 0.000000e+00
1.190000e+00 0.000000e+00 0.000000e+00
1.200000e+00 0.000000e+00 0.000000e+00
1.210000e+00 0.000000e+00 0.000000e+00
1.220000e+00 0.000000e+00 0.000000e+00
1.230000e+00 0.000000e+00 0.000000e+00
1.240000e+00 0.000000e+00 0.000000e+00
1.250000e+00 0.000000e+00 0.000000e+00
1.260000e+00 0.000000e+00 0.000000e+00
1.270000e+00 0.000000e+00 0.000000e+00
1.280000e+00 0.000000e+00 0.000000e+00
1.290000e+00 0.000000e+00 0.000000e+00
1.300000e+00 0.000000e+00 0.000000e+00
1.310000e+00 0.000000e+00 0.000000e+00
1.320000e+00 0.000000e+00 0.000000e+00
1.330000e+00 0.000000e+00 0.000000e+00
1.340000e+00 0.000000e+00 0.000000e+00
1.350000e+00 0.000000e+00 0.000000e+00
1.360000e+00 0.000000e+00 0.000000e+00
1.370000e+00 0.000000e+00 0.000000e+00
1.380000e+00 0.000000e+00 0.000000e+00
1.390000e+00 0.000000e+00 0.000000e+00
1.400000e+00 0.000000e+00 0.000000e+00
1.410000e+00 0.000000e+00 0.000000e+00
1.420000e+00 0.000000e+00 0.000000e+00
1.430000e+00 0.000000e+00 0.000000e+00
1.440000e+00 0.000000e+00 0.000000e+00
1.450000e+00 0.000000e+00 0.000000e+00
1.460000e+00 0.000000e+00 0.000000e+00
1.470000e+00 0.000000e+00 0.000000e+00
1.480000e+00 0.000000e+00 0.000000e+00
1.490000e+00 0.000000e+00 0.000000e+00
1.500000e+00 0.000000e+00 0.000000e+00
1.510000e+00 0.000000e+00 0.000000e+00
1.520000e+00 0.000000e+00 0.000000e+00
1.530000e+00 0.000000e+00 0.000000e+00
1.540000e+00 0.000000e+00 0.000000e+00
1.550000e+00 0.000000e+00 0.000000e+00
1.560000e+00 0.000000e+00 0.000000e+00
1.570000e+00 0.000000e+00 0.000000e+00
1.580000e+00 0.000000e+00 0.000000e+00
1.590000e+00 0.000000e+00 0.000000e+00
1.600000e+00 0.000000e+00 0.000000e+00
1.610000e+00 0.000000e+00 0.000000e+00
1.620000e+00 0.000000e+00 0.000000e+00
1.630000e+00 0.000000e+00 0.000000e+00
1.640000e+00 0.000000e+00 0.000000e+00
1.650000e+00 0.000000e+00 0.000000e+00
1.660000e+00 0.000000e+00 0.000000e+00
1.670000e+00 0.000000e+00 0.000000e+00
1.680000e+00 0.000000e+00 0.000000e+00
1.690000e+00 0.000000e+00 0.000000e+00
1.700000e+00 0.000000e+00 0.000000e+00
1.710000e+00 0.000000e+00 0.000000e+00
1.720000e+00 0.000000e+00 0.000000e+00
1.730000e+00 0.000000e+00 0.000000e+00
1.740000e+00 0.000000e+00 0.000000e+00
1.750000e+00 0.000000e+00 0.000000e+00
1.760000e+00 0.000000e+00 0.000000e+00
1.770000e+00 0.000000e+00 0.000000e+00
1.780000e+00 0.000000e+00 0.000000e+00
1.790000e+00 0.000000e+00 0.000000e+00
1.800000e+00 0.000000e+00 0.000000e+00
1.810000e+00 0.000000e+00 0.000000e+00
1.820000e+00 0.000000e+00 0.000000e+00
1.830000e+00 0.000000e+00 0.000000e+00
1.840000e+00 0.000000e+00 0.000000e+00
1.850000e+00 0.000000e+00 0.000000e+00
1.860000e+00 0.000000e+00 0.000000e+00
1.870000e+00 0.000000e+00 0.000000e+00
1.880000e+00 0.000000e+00 0.000000e+00
1.890000e+00 0.000000e+00 0.000000e+00
1.900000e+00 0.000000e+00 0.000000e+00
1.910000e+00 0.000000e+00 0.000000e+00
1.920000e+00 0.000000e+00 0.000000e+00
1.930000e+00 0.000000e+00 0.000000e+00
1.940000e+00 0.000000e+00 0.000000e+00
1.950000e+00 0.000000e+00 0.000000e+00
1.960000e+00 0.000000e+00 0.000000e+00
1.970000e+00 0.000000e+00 0.000000e+00
1.980000e+00 0.000000e+00 0.000000e+00
1.990000e+00 0.000000e+00 0.000000e+00
2.000000e+00 0.000000e+00 0.000000e+00
2.010000e+00 0.000000e+00 0.000000e+00
2.020000e+00 0.000000e+00 0.000000e+00
2.030000e+00 0.000000e+00 0.000000e+00
2.040000e+00 0.000000e+00 0.000000e+00
2.050000e+00 0.000000e+00 0.000000e+00
2.060000e+00 0.000000e+00 0.000000e+00
2.070000e+00 0.000000e+00 0.000000e+00
2.080000e+00 0.000000e+00 0.000000e+00
2.090000e+00 0.000000e+00 0.000000e+00
2.100000e+00 0.000000e+00 0.000000e+00
2.110000e+00 0.000000e+00 0.000000e+00
2.120000e+00 0.000000e+00 0.000000e+00
2.130000e+00 0.000000e+00 0.000000e+00
2.140000e+00 0.000000e+00 0.000000e+00
2.150000e+00 0.000000e+00 0.000000e+00
2.160000e+00 0.000000e+00 0.000000e+00
2.170000e+00 0.000000e+00 0.000000e+00
2.180000e+00 0.000000e+00 0.000000e+00
2.190000e+00 0.000000e+00 0.000000e+00
2.200000e+00 0.000000e+00 0.000000e+00
2.210000e+00 0.000000e+00 0.000000e+00
2.220000e+00 0.000000e+00 0.000000e+00
2.230000e+00 0.000000e+00 0.000000e+00
2.240000e+00 0.000000e+00 0.000000e+00
2.250000e+00 0.000000e+00 0.000000e+00
2.260000e+00 0.000000e+00 0.000000e+00
2.270000e+00 0.000000e+00 0.000000e+00
2.280000e+00 0.000000e+00 0.000000e+00
2.290000e+00 0.000000e+00 0.000000e+00
2.300000e+00 0.000000e+00 0.000000e+00
2.310000e+00 0.000000e+00 0.000000e+00
2.320000e+00 0.000000e+00 0.000000e+00
2.330000e+00 0.000000e+00 0.000000e+00
2.340000e+00 0.000000e+00 0.000000e+00
2.350000e+00 0.000000e+00 0.000000e+00
2.360000e+00 0.000000e+00 0.000000e+00
2.370000e+00 0.000000e+00 0.000000e+00
2.380000e+00 0.000000e+00 0.000000e+00
2.390000e+00 0.000000e+00 0.000000e+00
2.400000e+00 0.000000e+00 0.000000e+00
2.410000e+00 0.000000e+00 0.000000e+00
2.420000e+00 0.000000e+00 0.000000e+00
2.430000e+00 0.000000e+00 0.000000e+00
2.440000e+00 0.000000e+00 0.000000e+00
2.450000e+00 0.000000e+00 0.000000e+00
2.460000e+00 0.000000e+00 0.000000e+00
2.470000e+00 0.000000e+00 0.000000e+00
2.480000e+00 0.000000e+00 0.000000e+00
2.490000e+00 0.000000e+00 0.000000e+00
2.500000e+00 0.000000e+00 0.000000e+00
2.510000e+00 0.000000e+00 0.000000e+00
2.520000e+00 0.000000e+00 0.000000e+00
2.530000e+00 0.000000e+00 0.000000e+00
[...]
POINT_DATA 501
SCALARS vm float 1
LOOKUP_TABLE default
-3.568394e+01
-3.568374e+01
-3.568336e+01
-3.568278e+01
-3.568201e+01
-3.568105e+01
-3.567992e+01
-3.567863e+01
-3.567716e+01
-3.567553e+01
-3.567373e+01
-3.567178e+01
-3.566967e+01
-3.566740e+01
-3.566498e+01
-3.566241e+01
-3.565970e+01
-3.565683e+01
-3.565383e+01
-3.565069e+01
-3.564741e+01
-3.564400e+01
-3.564045e+01
-3.563677e+01
-3.563297e+01
-3.562903e+01
-3.562498e+01
-3.562080e+01
-3.561650e+01
-3.561208e+01
-3.560754e+01
-3.560289e+01
-3.559813e+01
-3.559325e+01
-3.558826e+01
-3.558317e+01
-3.557797e+01
-3.557266e+01
-3.556725e+01
-3.556173e+01
-3.555612e+01
-3.555040e+01
-3.554459e+01
-3.553868e+01
-3.553268e+01
-3.552658e+01
-3.552039e+01
-3.551410e+01
-3.550773e+01
-3.550127e+01
-3.549472e+01
-3.548808e+01
-3.548135e+01
-3.547454e+01
-3.546765e+01
-3.546068e+01
-3.545362e+01
-3.544648e+01
-3.543927e+01
-3.543197e+01
-3.542460e+01
-3.541716e+01
-3.540963e+01
-3.540203e+01
-3.539436e+01
-3.538662e+01
-3.537881e+01
-3.537092e+01
-3.536296e+01
-3.535494e+01
-3.534685e+01
-3.533869e+01
-3.533046e+01
-3.532217e+01
-3.531381e+01
-3.530539e+01
-3.529691e+01
-3.528836e+01
-3.527976e+01
-3.527109e+01
-3.526236e+01
-3.525357e+01
-3.524473e+01
-3.523582e+01
-3.522686e+01
-3.521785e+01
-3.520878e+01
-3.519965e+01
-3.519047e+01
-3.518123e+01
-3.517195e+01
-3.516261e+01
-3.515322e+01
-3.514378e+01
-3.513429e+01
-3.512475e+01
-3.511516e+01
-3.510552e+01
-3.509584e+01
-3.508611e+01
-3.507633e+01
-3.506651e+01
-3.505664e+01
-3.504672e+01
-3.503677e+01
-3.502677e+01
-3.501673e+01
-3.500665e+01
-3.499652e+01
-3.498636e+01
-3.497615e+01
-3.496590e+01
-3.495562e+01
-3.494530e+01
-3.493494e+01
-3.492454e+01
-3.491410e+01
-3.490363e+01
-3.489312e+01
-3.488258e+01
-3.487200e+01
-3.486139e+01
-3.485075e+01
-3.484007e+01
-3.482936e+01
-3.481861e+01
-3.480784e+01
-3.479703e+01
-3.478620e+01
-3.477533e+01
-3.476443e+01
-3.475351e+01
-3.474255e+01
-3.473157e+01
-3.472056e+01
-3.470952e+01
-3.469845e+01
-3.468736e+01
-3.467624e+01
-3.466510e+01
-3.465393e+01
-3.464274e+01
-3.463152e+01
-3.462028e+01
-3.460901e+01
-3.459772e+01
-3.458641e+01
-3.457508e+01
-3.456373e+01
-3.455235e+01
-3.454095e+01
-3.452954e+01
-3.451810e+01
-3.450664e+01
-3.449516e+01
-3.448367e+01
-3.447216e+01
-3.446062e+01
-3.444907e+01
-3.443751e+01
-3.442592e+01
-3.441432e+01
-3.440270e+01
-3.439107e+01
-3.437942e+01
-3.436776e+01
-3.435608e+01
-3.434439e+01
-3.433268e+01
-3.432096e+01
-3.430922e+01
-3.429748e+01
-3.428572e+01
-3.427394e+01
-3.426216e+01
-3.425036e+01
-3.423855e+01
-3.422673e+01
-3.421490e+01
-3.420306e+01
-3.419121e+01
-3.417935e+01
-3.416748e+01
-3.415560e+01
-3.414371e+01
-3.413181e+01
-3.411991e+01
-3.410799e+01
-3.409607e+01
-3.408414e+01
-3.407221e+01
-3.406027e+01
-3.404832e+01
-3.403636e+01
-3.402440e+01
-3.401243e+01
-3.400046e+01
-3.398848e+01
-3.397650e+01
-3.396451e+01
-3.395252e+01
-3.394053e+01
-3.392853e+01
-3.391652e+01
-3.390452e+01
-3.389251e+01
-3.388050e+01
-3.386848e+01
-3.385647e+01
-3.384445e+01
-3.383243e+01
-3.382041e+01
-3.380839e+01
-3.379636e+01
-3.378434e+01
-3.377231e+01
-3.376029e+01
-3.374826e+01
-3.373624e+01
-3.372421e+01
-3.371219e+01
-3.370017e+01
-3.368815e+01
-3.367613e+01
-3.366411e+01
-3.365209e+01
-3.364008e+01
-3.362806e+01
-3.361606e+01
-3.360405e+01
-3.359205e+01
-3.358005e+01
-3.356805e+01
-3.355606e+01
-3.354407e+01
-3.353208e+01
-3.352010e+01
-3.350813e+01
-3.349616e+01
-3.348419e+01
-3.347223e+01
-3.346027e+01
-3.344832e+01
-3.343638e+01
-3.342444e+01
-3.341251e+01
-3.340059e+01
-3.338867e+01
-3.337676e+01
-3.336485e+01
-3.335296e+01
-3.334107e+01
-3.332919e+01
-3.331732e+01
-3.330545e+01
-3.329359e+01
-3.328175e+01
-3.326991e+01
-3.325808e+01
-3.324626e+01
-3.323444e+01
-3.322264e+01
-3.321085e+01
-3.319907e+01
-3.318730e+01
-3.317554e+01
-3.316379e+01
-3.315205e+01
-3.314032e+01
-3.312860e+01
-3.311689e+01
-3.310520e+01
-3.309352e+01
-3.308185e+01
-3.307019e+01
-3.305855e+01
-3.304691e+01
-3.303529e+01
-3.302369e+01
-3.301209e+01
-3.300052e+01
-3.298895e+01
-3.297740e+01
-3.296586e+01
-3.295434e+01
-3.294283e+01
-3.293133e+01
-3.291986e+01
-3.290839e+01
-3.289694e+01
-3.288551e+01
-3.287410e+01
-3.286269e+01
-3.285131e+01
-3.283994e+01
-3.282859e+01
-3.281726e+01
-3.280594e+01
-3.279464e+01
-3.278336e+01
-3.277210e+01
-3.276085e+01
-3.274962e+01
-3.273842e+01
-3.272723e+01
-3.271605e+01
-3.270490e+01
-3.269377e+01
-3.268266e+01
-3.267156e+01
-3.266049e+01
-3.264944e+01
-3.263841e+01
-3.262739e+01
-3.261640e+01
-3.260544e+01
-3.259449e+01
-3.258356e+01
-3.257266e+01
-3.256178e+01
-3.255092e+01
-3.254008e+01
-3.252927e+01
-3.251848e+01
-3.250772e+01
-3.249698e+01
-3.248626e+01
-3.247556e+01
-3.246489e+01
-3.245425e+01
-3.244363e+01
-3.243304e+01
-3.242247e+01
-3.241193e+01
-3.240141e+01
-3.239092e+01
-3.238046e+01
-3.237002e+01
-3.235961e+01
-3.234924e+01
-3.233888e+01
-3.232856e+01
-3.231826e+01
-3.230799e+01
-3.229776e+01
-3.228755e+01
-3.227737e+01
-3.226722e+01
-3.225710e+01
-3.224701e+01
-3.223695e+01
-3.222693e+01
-3.221693e+01
-3.220697e+01
-3.219704e+01
-3.218714e+01
-3.217727e+01
-3.216744e+01
-3.215764e+01
-3.214788e+01
-3.213815e+01
-3.212845e+01
-3.211879e+01
-3.210916e+01
-3.209957e+01
-3.209002e+01
-3.208050e+01
-3.207102e+01
-3.206157e+01
-3.205216e+01
-3.204279e+01
-3.203346e+01
-3.202417e+01
-3.201491e+01
-3.200570e+01
-3.199652e+01
-3.198739e+01
-3.197829e+01
-3.196924e+01
-3.196022e+01
-3.195125e+01
-3.194232e+01
-3.193343e+01
-3.192459e+01
-3.191578e+01
-3.190703e+01
-3.189831e+01
-3.188964e+01
-3.188102e+01
-3.187243e+01
-3.186390e+01
-3.185541e+01
-3.184697e+01
-3.183858e+01
-3.183023e+01
-3.182193e+01
-3.181368e+01
-3.180548e+01
-3.179732e+01
-3.178922e+01
-3.178117e+01
-3.177317e+01
-3.176522e+01
-3.175732e+01
-3.174947e+01
-3.174167e+01
-3.173393e+01
-3.172625e+01
-3.171861e+01
-3.171103e+01
-3.170351e+01
-3.169604e+01
-3.168863e+01
-3.168127e+01
-3.167398e+01
-3.166673e+01
-3.165955e+01
-3.165243e+01
-3.164536e+01
-3.163836e+01
-3.163142e+01
-3.162453e+01
-3.161771e+01
-3.161095e+01
-3.160425e+01
-3.159762e+01
-3.159105e+01
-3.158454e+01
-3.157810e+01
-3.157172e+01
-3.156541e+01
-3.155917e+01
-3.155299e+01
-3.154689e+01
-3.154084e+01
-3.153487e+01
-3.152897e+01
-3.152314e+01
-3.151738e+01
-3.151169e+01
-3.150607e+01
-3.150052e+01
-3.149505e+01
-3.148965e+01
-3.148433e+01
-3.147908e+01
-3.147390e+01
-3.146881e+01
-3.146378e+01
-3.145884e+01
-3.145397e+01
-3.144919e+01
-3.144448e+01
-3.143985e+01
-3.143530e+01
-3.143084e+01
-3.142645e+01
-3.142215e+01
-3.141793e+01
-3.141380e+01
-3.140975e+01
-3.140578e+01
-3.140190e+01
-3.139810e+01
-3.139440e+01
-3.139078e+01
-3.138724e+01
-3.138380e+01
-3.138045e+01
-3.137718e+01
-3.137401e+01
-3.137092e+01
-3.136793e+01
-3.136503e+01
-3.136223e+01
-3.135951e+01
-3.135689e+01
-3.135437e+01
-3.135194e+01
-3.134961e+01
-3.134737e+01
-3.134524e+01
-3.134320e+01
-3.134125e+01
-3.133941e+01
-3.133767e+01
-3.133603e+01
-3.133449e+01
-3.133305e+01
-3.133172e+01
-3.133049e+01
-3.132936e+01
-3.132834e+01
-3.132743e+01
-3.132663e+01
-3.132595e+01
-3.132537e+01
-3.132491e+01
-3.132456e+01
-3.132432e+01
-3.132421e+01
