# vtk DataFile Version 3.0
Monodomain MVF
ASCII
DATASET POLYDATA
POINTS 501 float
0.000000e+00 0.000000e+00 0.000000e+00
1.000000e-02 0.000000e+00 0.000000e+00
2.000000e-02 0.000000e+00 0.000000e+00
3.000000e-02 0.000000e+00 0.000000e+00
4.000000e-02 0.000000e+00 0.000000e+00
5.000000e-02 0.000000e+00 0.000000e+00
6.000000e-02 0.000000e+00 0.000000e+00
7.000000e-02 0.000000e+00 0.000000e+00
8.000000e-02 0.000000e+00 0.000000e+00
9.000000e-02 0.000000e+00 0.000000e+00
1.000000e-01 0.000000e+00 0.000000e+00
1.100000e-01 0.000000e+00 0.000000e+00
1.200000e-01 0.000000e+00 0.000000e+00
1.300000e-01 0.000000e+00 0.000000e+00
1.400000e-01 0.000000e+00 0.000000e+00
1.500000e-01 0.000000e+00 0.000000e+00
1.600000e-01 0.000000e+00 0.000000e+00
1.700000e-01 0.000000e+00 0.000000e+00
1.800000e-01 0.000000e+00 0.000000e+00
1.900000e-01 0.000000e+00 0.000000e+00
2.000000e-01 0.000000e+00 0.000000e+00
2.100000e-01 0.000000e+00 0.000000e+00
2.200000e-01 0.000000e+00 0.000000e+00
2.300000e-01 0.000000e+00 0.000000e+00
2.400000e-01 0.000000e+00 0.000000e+00
2.500000e-01 0.000000e+00 0.000000e+00
2.600000e-01 0.000000e+00 0.000000e+00
2.700000e-01 0.000000e+00 0.000000e+00
2.800000e-01 0.000000e+00 0.000000e+00
2.900000e-01 0.000000e+00 0.000000e+00
3.000000e-01 0.000000e+00 0.000000e+00
3.100000e-01 0.000000e+00 0.000000e+00
3.200000e-01 0.000000e+00 0.000000e+00
3.300000e-01 0.000000e+00 0.000000e+00
3.400000e-01 0.000000e+00 0.000000e+00
3.500000e-01 0.000000e+00 0.000000e+00
3.600000e-01 0.000000e+00 0.000000e+00
3.700000e-01 0.000000e+00 0.000000e+00
3.800000e-01 0.000000e+00 0.000000e+00
3.900000e-01 0.000000e+00 0.000000e+00
4.000000e-01 0.000000e+00 0.000000e+00
4.100000e-01 0.000000e+00 0.000000e+00
4.200000e-01 0.000000e+00 0.000000e+00
4.300000e-01 0.000000e+00 0.000000e+00
4.400000e-01 0.000000e+00 0.000000e+00
4.500000e-01 0.000000e+00 0.000000e+00
4.600000e-01 0.000000e+00 0.000000e+00
4.700000e-01 0.000000e+00 0.000000e+00
4.800000e-01 0.000000e+00 0.000000e+00
4.900000e-01 0.000000e+00 0.000000e+00
5.000000e-01 0.000000e+00 0.000000e+00
5.100000e-01 0.000000e+00 0.000000e+00
5.200000e-01 0.000000e+00 0.000000e+00
5.300000e-01 0.000000e+00 0.000000e+00
5.400000e-01 0.000000e+00 0.000000e+00
5.500000e-01 0.000000e+00 0.000000e+00
5.600000e-01 0.000000e+00 0.000000e+00
5.700000e-01 0.000000e+00 0.000000e+00
5.800000e-01 0.000000e+00 0.000000e+00
5.900000e-01 0.000000e+00 0.000000e+00
6.000000e-01 0.000000e+00 0.000000e+00
6.100000e-01 0.000000e+00 0.000000e+00
6.200000e-01 0.000000e+00 0.000000e+00
6.300000e-01 0.000000e+00 0.000000e+00
6.400000e-01 0.000000e+00 0.000000e+00
6.500000e-01 0.000000e+00 0.000000e+00
6.600000e-01 0.000000e+00 0.000000e+00
6.700000e-01 0.000000e+00 0.000000e+00
6.800000e-01 0.000000e+00 0.000000e+00
6.900000e-01 0.000000e+00 0.000000e+00
7.000000e-01 0.000000e+00 0.000000e+00
7.100000e-01 0.000000e+00 0.000000e+00
7.200000e-01 0.000000e+00 0.000000e+00
7.300000e-01 0.000000e+00 0.000000e+00
7.400000e-01 0.000000e+00 0.000000e+00
7.500000e-01 0.000000e+00 0.000000e+00
7.600000e-01 0.000000e+00 0.000000e+00
7.700000e-01 0.000000e+00 0.000000e+00
7.800000e-01 0.000000e+00 0.000000e+00
7.900000e-01 0.000000e+00 0.000000e+00
8.000000e-01 0.000000e+00 0.000000e+00
8.100000e-01 0.000000e+00 0.000000e+00
8.200000e-01 0.000000e+00 0.000000e+00
8.300000e-01 0.000000e+00 0.000000e+00
8.400000e-01 0.000000e+00 0.000000e+00
8.500000e-01 0.000000e+00 0.000000e+00
8.600000e-01 0.000000e+00 0.000000e+00
8.700000e-01 0.000000e+00 0.000000e+00
8.800000e-01 0.000000e+00 0.000000e+00
8.900000e-01 0.000000e+00 0.000000e+00
9.000000e-01 0.000000e+00 0.000000e+00
9.100000e-01 0.000000e+00 0.000000e+00
9.200000e-01 0.000000e+00 0.000000e+00
9.300000e-01 0.000000e+00 0.000000e+00
9.400000e-01 0.000000e+00 0.000000e+00
9.500000e-01 0.000000e+00 0.000000e+00
9.600000e-01 0.000000e+00 0.000000e+00
9.700000e-01 0.000000e+00 0.000000e+00
9.800000e-01 0.000000e+00 0.000000e+00
9.900000e-01 0.000000e+00 0.000000e+00
1.000000e+00 0.000000e+00 0.000000e+00
1.010000e+00 0.000000e+00 0.000000e+00
1.020000e+00 0.000000e+00 0.000000e+00
1.030000e+00 0.000000e+00 0.000000e+00
1.040000e+00 0.000000e+00 0.000000e+00
1.050000e+00 0.000000e+00 0.000000e+00
1.060000e+00 0.000000e+00 0.000000e+00
1.070000e+00 0.000000e+00 0.000000e+00
1.080000e+00 0.000000e+00 0.000000e+00
1.090000e+00 0.000000e+00 0.000000e+00
1.100000e+00 0.000000e+00 0.000000e+00
1.110000e+00 0.000000e+00 0.000000e+00
1.120000e+00 0.000000e+00 0.000000e+00
1.130000e+00 0.000000e+00 0.000000e+00
1.140000e+00 0.000000e+00 0.000000e+00
1.150000e+00 0.000000e+00 0.000000e+00
1.160000e+00 0.000000e+00 0.000000e+00
1.170000e+00 0.000000e+00 0.000000e+00
1.180000e+00 0.000000e+00 0.000000e+00
1.190000e+00 0.000000e+00 0.000000e+00
1.200000e+00 0.000000e+00 0.000000e+00
1.210000e+00 0.000000e+00 0.000000e+00
1.220000e+00 0.000000e+00 0.000000e+00
1.230000e+00 0.000000e+00 0.000000e+00
1.240000e+00 0.000000e+00 0.000000e+00
1.250000e+00 0.000000e+00 0.000000e+00
1.260000e+00 0.000000e+00 0.000000e+00
1.270000e+00 0.000000e+00 0.000000e+00
1.280000e+00 0.000000e+00 0.000000e+00
1.290000e+00 0.000000e+00 0.000000e+00
1.300000e+00 0.000000e+00 0.000000e+00
1.310000e+00 0.000000e+00 0.000000e+00
1.320000e+00 0.000000e+00 0.000000e+00
1.330000e+00 0.000000e+00 0.000000e+00
1.340000e+00 0.000000e+00 0.000000e+00
1.350000e+00 0.000000e+00 0.000000e+00
1.360000e+00 0.000000e+00 0.000000e+00
1.370000e+00 0.000000e+00 0.000000e+00
1.380000e+00 0.000000e+00 0.000000e+00
1.390000e+00 0.000000e+00 0.000000e+00
1.400000e+00 0.000000e+00 0.000000e+00
1.410000e+00 0.000000e+00 0.000000e+00
1.420000e+00 0.000000e+00 0.000000e+00
1.430000e+00 0.000000e+00 0.000000e+00
1.440000e+00 0.000000e+00 0.000000e+00
1.450000e+00 0.000000e+00 0.000000e+00
1.460000e+00 0.000000e+00 0.000000e+00
1.470000e+00 0.000000e+00 0.000000e+00
1.480000e+00 0.000000e+00 0.000000e+00
1.490000e+00 0.000000e+00 0.000000e+00
1.500000e+00 0.000000e+00 0.000000e+00
1.510000e+00 0.000000e+00 0.000000e+00
1.520000e+00 0.000000e+00 0.000000e+00
1.530000e+00 0.000000e+00 0.000000e+00
1.540000e+00 0.000000e+00 0.000000e+00
1.550000e+00 0.000000e+00 0.000000e+00
1.560000e+00 0.000000e+00 0.000000e+00
1.570000e+00 0.000000e+00 0.000000e+00
1.580000e+00 0.000000e+00 0.000000e+00
1.590000e+00 0.000000e+00 0.000000e+00
1.600000e+00 0.000000e+00 0.000000e+00
1.610000e+00 0.000000e+00 0.000000e+00
1.620000e+00 0.000000e+00 0.000000e+00
1.630000e+00 0.000000e+00 0.000000e+00
1.640000e+00 0.000000e+00 0.000000e+00
1.650000e+00 0.000000e+00 0.000000e+00
1.660000e+00 0.000000e+00 0.000000e+00
1.670000e+00 0.000000e+00 0.000000e+00
1.680000e+00 0.000000e+00 0.000000e+00
1.690000e+00 0.000000e+00 0.000000e+00
1.700000e+00 0.000000e+00 0.000000e+00
1.710000e+00 0.000000e+00 0.000000e+00
1.720000e+00 0.000000e+00 0.000000e+00
1.730000e+00 0.000000e+00 0.000000e+00
1.740000e+00 0.000000e+00 0.000000e+00
1.750000e+00 0.000000e+00 0.000000e+00
1.760000e+00 0.000000e+00 0.000000e+00
1.770000e+00 0.000000e+00 0.000000e+00
1.780000e+00 0.000000e+00 0.000000e+00
1.790000e+00 0.000000e+00 0.000000e+00
1.800000e+00 0.000000e+00 0.000000e+00
1.810000e+00 0.000000e+00 0.000000e+00
1.820000e+00 0.000000e+00 0.000000e+00
1.830000e+00 0.000000e+00 0.000000e+00
1.840000e+00 0.000000e+00 0.000000e+00
1.850000e+00 0.000000e+00 0.000000e+00
1.860000e+00 0.000000e+00 0.000000e+00
1.870000e+00 0.000000e+00 0.000000e+00
1.880000e+00 0.000000e+00 0.000000e+00
1.890000e+00 0.000000e+00 0.000000e+00
1.900000e+00 0.000000e+00 0.000000e+00
1.910000e+00 0.000000e+00 0.000000e+00
1.920000e+00 0.000000e+00 0.000000e+00
1.930000e+00 0.000000e+00 0.000000e+00
1.940000e+00 0.000000e+00 0.000000e+00
1.950000e+00 0.000000e+00 0.000000e+00
1.960000e+00 0.000000e+00 0.000000e+00
1.970000e+00 0.000000e+00 0.000000e+00
1.980000e+00 0.000000e+00 0.000000e+00
1.990000e+00 0.000000e+00 0.000000e+00
2.000000e+00 0.000000e+00 0.000000e+00
2.010000e+00 0.000000e+00 0.000000e+00
2.020000e+00 0.000000e+00 0.000000e+00
2.030000e+00 0.000000e+00 0.000000e+00
2.040000e+00 0.000000e+00 0.000000e+00
2.050000e+00 0.000000e+00 0.000000e+00
2.060000e+00 0.000000e+00 0.000000e+00
2.070000e+00 0.000000e+00 0.000000e+00
2.080000e+00 0.000000e+00 0.000000e+00
2.090000e+00 0.000000e+00 0.000000e+00
2.100000e+00 0.000000e+00 0.000000e+00
2.110000e+00 0.000000e+00 0.000000e+00
2.120000e+00 0.000000e+00 0.000000e+00
2.130000e+00 0.000000e+00 0.000000e+00
2.140000e+00 0.000000e+00 0.000000e+00
2.150000e+00 0.000000e+00 0.000000e+00
2.160000e+00 0.000000e+00 0.000000e+00
2.170000e+00 0.000000e+00 0.000000e+00
2.180000e+00 0.000000e+00 0.000000e+00
2.190000e+00 0.000000e+00 0.000000e+00
2.200000e+00 0.000000e+00 0.000000e+00
2.210000e+00 0.000000e+00 0.000000e+00
2.220000e+00 0.000000e+00 0.000000e+00
2.230000e+00 0.000000e+00 0.000000e+00
2.240000e+00 0.000000e+00 0.000000e+00
2.250000e+00 0.000000e+00 0.000000e+00
2.260000e+00 0.000000e+00 0.000000e+00
2.270000e+00 0.000000e+00 0.000000e+00
2.280000e+00 0.000000e+00 0.000000e+00
2.290000e+00 0.000000e+00 0.000000e+00
2.300000e+00 0.000000e+00 0.000000e+00
2.310000e+00 0.000000e+00 0.000000e+00
2.320000e+00 0.000000e+00 0.000000e+00
2.330000e+00 0.000000e+00 0.000000e+00
2.340000e+00 0.000000e+00 0.000000e+00
2.350000e+00 0.000000e+00 0.000000e+00
2.360000e+00 0.000000e+00 0.000000e+00
2.370000e+00 0.000000e+00 0.000000e+00
2.380000e+00 0.000000e+00 0.000000e+00
2.390000e+00 0.000000e+00 0.000000e+00
2.400000e+00 0.000000e+00 0.000000e+00
2.410000e+00 0.000000e+00 0.000000e+00
2.420000e+00 0.000000e+00 0.000000e+00
2.430000e+00 0.000000e+00 0.000000e+00
2.440000e+00 0.000000e+00 0.000000e+00
2.450000e+00 0.000000e+00 0.000000e+00
2.460000e+00 0.000000e+00 0.000000e+00
2.470000e+00 0.000000e+00 0.000000e+00
2.480000e+00 0.000000e+00 0.000000e+00
2.490000e+00 0.000000e+00 0.000000e+00
2.500000e+00 0.000000e+00 0.000000e+00
2.510000e+00 0.000000e+00 0.000000e+00
2.520000e+00 0.000000e+00 0.000000e+00
2.530000e+00 0.000000e+00 0.000000e+00
[...]
POINT_DATA 501
SCALARS vm float 1
LOOKUP_TABLE default
-8.425543e+01
-8.425540e+01
-8.425535e+01
-8.425528e+01
-8.425519e+01
-8.425498e+01
-8.425485e+01
-8.425470e+01
-8.425454e+01
-8.425437e+01
-8.425418e+01
-8.425399e+01
-8.425377e+01
-8.425355e+01
-8.425332e+01
-8.425307e+01
-8.425282e+01
-8.425255e+01
-8.425227e+01
-8.425199e+01
-8.425169e+01
-8.425138e+01
-8.425107e+01
-8.425074e+01
-8.425040e+01
-8.425006e+01
-8.424971e+01
-8.424934e+01
-8.424897e+01
-8.424859e+01
-8.424821e+01
-8.424781e+01
-8.424741e+01
-8.424699e+01
-8.424657e+01
-8.424614e+01
-8.424571e+01
-8.424526e+01
-8.424481e+01
-8.424435e+01
-8.424388e+01
-8.424341e+01
-8.424293e+01
-8.424244e+01
-8.424194e+01
-8.424143e+01
-8.424092e+01
-8.424040e+01
-8.423987e+01
-8.423934e+01
-8.423880e+01
-8.423825e+01
-8.423770e+01
-8.423713e+01
-8.423656e+01
-8.423599e+01
-8.423540e+01
-8.423481e+01
-8.423421e+01
-8.423361e+01
-8.423299e+01
-8.423238e+01
-8.423175e+01
-8.423112e+01
-8.423048e+01
-8.422983e+01
-8.422918e+01
-8.422852e+01
-8.422785e+01
-8.422717e+01
-8.422649e+01
-8.422580e+01
-8.422511e+01
-8.422440e+01
-8.422370e+01
-8.422298e+01
-8.422226e+01
-8.422153e+01
-8.422079e+01
-8.422005e+01
-8.421930e+01
-8.421854e+01
-8.421778e+01
-8.421701e+01
-8.421623e+01
-8.421544e+01
-8.421465e+01
-8.421386e+01
-8.421305e+01
-8.421224e+01
-8.421142e+01
-8.421060e+01
-8.420976e+01
-8.420893e+01
-8.420808e+01
-8.420723e+01
-8.420637e+01
-8.420550e+01
-8.420463e+01
-8.420375e+01
-8.420286e+01
-8.420197e+01
-8.420107e+01
-8.420017e+01
-8.419925e+01
-8.419833e+01
-8.419741e+01
-8.419647e+01
-8.419553e+01
-8.419459e+01
-8.419363e+01
-8.419267e+01
-8.419171e+01
-8.419073e+01
-8.418975e+01
-8.418877e+01
-8.418777e+01
-8.418677e+01
-8.418577e+01
-8.418475e+01
-8.418373e+01
-8.418271e+01
-8.418167e+01
-8.418063e+01
-8.417959e+01
-8.417854e+01
-8.417748e+01
-8.417641e+01
-8.417534e+01
-8.417426e+01
-8.417317e+01
-8.417208e+01
-8.417098e+01
-8.416988e+01
-8.416876e+01
-8.416765e+01
-8.416652e+01
-8.416539e+01
-8.416425e+01
-8.416311e+01
-8.416196e+01
-8.416080e+01
-8.415964e+01
-8.415847e+01
-8.415729e+01
-8.415611e+01
-8.415492e+01
-8.415373e+01
-8.415253e+01
-8.415132e+01
-8.415011e+01
-8.414889e+01
-8.414766e+01
-8.414643e+01
-8.414519e+01
-8.414394e+01
-8.414269e+01
-8.414143e+01
-8.414017e+01
-8.413890e+01
-8.413763e+01
-8.413635e+01
-8.413506e+01
-8.413376e+01
-8.413246e+01
-8.413116e+01
-8.412985e+01
-8.412853e+01
-8.412720e+01
-8.412588e+01
-8.412454e+01
-8.412320e+01
-8.412185e+01
-8.412050e+01
-8.411914e+01
-8.411777e+01
-8.411640e+01
-8.411503e+01
-8.411365e+01
-8.411226e+01
-8.411087e+01
-8.410947e+01
-8.410806e+01
-8.410665e+01
-8.410524e+01
-8.410382e+01
-8.410239e+01
-8.410096e+01
-8.409952e+01
-8.409807e+01
-8.409663e+01
-8.409517e+01
-8.409371e+01
-8.409225e+01
-8.409078e+01
-8.408930e+01
-8.408782e+01
-8.408634e+01
-8.408485e+01
-8.408335e+01
-8.408185e+01
-8.408034e+01
-8.407883e+01
-8.407732e+01
-8.407580e+01
-8.407427e+01
-8.407274e+01
-8.407120e+01
-8.406966e+01
-8.406812e+01
-8.406657e+01
-8.406501e+01
-8.406345e+01
-8.406189e+01
-8.406032e+01
-8.405874e+01
-8.405717e+01
-8.405558e+01
-8.405400e+01
-8.405240e+01
-8.405081e+01
-8.404921e+01
-8.404760e+01
-8.404599e+01
-8.404438e+01
-8.404276e+01
-8.404114e+01
-8.403952e+01
-8.403789e+01
-8.403625e+01
-8.403461e+01
-8.403297e+01
-8.403133e+01
-8.402968e+01
-8.402803e+01
-8.402637e+01
-8.402471e+01
-8.402304e+01
-8.402138e+01
-8.401970e+01
-8.401803e+01
-8.401635e+01
-8.401467e+01
-8.401298e+01
-8.401130e+01
-8.400960e+01
-8.400791e+01
-8.400621e+01
-8.400451e+01
-8.400280e+01
-8.400110e+01
-8.399939e+01
-8.399767e+01
-8.399596e+01
-8.399424e+01
-8.399252e+01
-8.399079e+01
-8.398907e+01
-8.398734e+01
-8.398561e+01
-8.398387e+01
-8.398213e+01
-8.398039e+01
-8.397865e+01
-8.397691e+01
-8.397516e+01
-8.397342e+01
-8.397167e+01
-8.396991e+01
-8.396816e+01
-8.396640e+01
-8.396465e+01
-8.396289e+01
-8.396113e+01
-8.395936e+01
-8.395760e+01
-8.395583e+01
-8.395407e+01
-8.395230e+01
-8.395053e+01
-8.394876e+01
-8.394699e+01
-8.394521e+01
-8.394344e+01
-8.394166e+01
-8.393989e+01
-8.393811e+01
-8.393633e+01
-8.393456e+01
-8.393278e+01
-8.393100e+01
-8.392922e+01
-8.392744e+01
-8.392566e+01
-8.392388e+01
-8.392210e+01
-8.392032e+01
-8.391854e+01
-8.391675e+01
-8.391497e+01
-8.391319e+01
-8.391141e+01
-8.390963e+01
-8.390785e+01
-8.390608e+01
-8.390430e+01
-8.390252e+01
-8.390074e+01
-8.389897e+01
-8.389719e+01
-8.389542e+01
-8.389364e+01
-8.389187e+01
-8.389010e+01
-8.388833e+01
-8.388656e+01
-8.388480e+01
-8.388303e+01
-8.388127e+01
-8.387951e+01
-8.387775e+01
-8.387599e+01
-8.387423e+01
-8.387248e+01
-8.387073e+01
-8.386898e+01
-8.386723e+01
-8.386548e+01
-8.386374e+01
-8.386200e+01
-8.386026e+01
-8.385853e+01
-8.385680e+01
-8.385507e+01
-8.385334e+01
-8.385162e+01
-8.384990e+01
-8.384818e+01
-8.384647e+01
-8.384476e+01
-8.384306e+01
-8.384135e+01
-8.383965e+01
-8.383796e+01
-8.383627e+01
-8.383458e+01
-8.383290e+01
-8.383122e+01
-8.382954e+01
-8.382787e+01
-8.382621e+01
-8.382454e+01
-8.382289e+01
-8.382124e+01
-8.381959e+01
-8.381794e+01
-8.381631e+01
-8.381467e+01
-8.381305e+01
-8.381142e+01
-8.380981e+01
-8.380820e+01
-8.380659e+01
-8.380499e+01
-8.380340e+01
-8.380181e+01
-8.380022e+01
-8.379865e+01
-8.379707e+01
-8.379551e+01
-8.379395e+01
-8.379240e+01
-8.379085e+01
-8.378932e+01
-8.378778e+01
-8.378626e+01
-8.378474e+01
-8.378323e+01
-8.378172e+01
-8.378022e+01
-8.377873e+01
-8.377725e+01
-8.377577e+01
-8.377431e+01
-8.377285e+01
-8.377139e+01
-8.376995e+01
-8.376851e+01
-8.376708e+01
-8.376566e+01
-8.376425e+01
-8.376284e+01
-8.376144e+01
-8.376006e+01
-8.375868e+01
-8.375731e+01
-8.375594e+01
-8.375459e+01
-8.375325e+01
-8.375191e+01
-8.375058e+01
-8.374927e+01
-8.374796e+01
-8.374666e+01
-8.374537e+01
-8.374409e+01
-8.374282e+01
-8.374156e+01
-8.374031e+01
-8.373907e+01
-8.373784e+01
-8.373662e+01
-8.373541e+01
-8.373421e+01
-8.373302e+01
-8.373184e+01
-8.373067e+01
-8.372952e+01
-8.372837e+01
-8.372723e+01
-8.372611e+01
-8.372499e+01
-8.372389e+01
-8.372280e+01
-8.372172e+01
-8.372065e+01
-8.371959e+01
-8.371854e+01
-8.371751e+01
-8.371649e+01
-8.371548e+01
-8.371448e+01
-8.371349e+01
-8.371251e+01
-8.371155e+01
-8.371060e+01
-8.370966e+01
-8.370874e+01
-8.370782e+01
-8.370692e+01
-8.370603e+01
-8.370516e+01
-8.370429e+01
-8.370344e+01
-8.370261e+01
-8.370178e+01
-8.370097e+01
-8.370017e+01
-8.369939e+01
-8.369862e+01
-8.369786e+01
-8.369712e+01
-8.369638e+01
-8.369567e+01
-8.369496e+01
-8.369427e+01
-8.369360e+01
-8.369294e+01
-8.369229e+01
-8.369165e+01
-8.369103e+01
-8.369043e+01
-8.368983e+01
-8.368926e+01
-8.368869e+01
-8.368814e+01
-8.368761e+01
-8.368709e+01
-8.368658e+01
-8.368609e+01
-8.368562e+01
-8.368515e+01
-8.368471e+01
-8.368427e+01
-8.368386e+01
-8.368345e+01
-8.368306e+01
-8.368269e+01
-8.368233e+01
-8.368199e+01
-8.368166e+01
-8.368134e+01
-8.368104e+01
-8.368076e+01
-8.368049e+01
-8.368023e+01
-8.367999e+01
-8.367977e+01
-8.367956e+01
-8.367936e+01
-8.367918e+01
-8.367902e+01
-8.367887e+01
-8.367873e+01
-8.367861e+01
-8.367851e+01
-8.367843e+01
-8.367836e+01
-8.367831e+01
-8.367827e+01
-8.367825e+01
