# vtk DataFile Version 3.0
Monodomain MVF
ASCII
DATASET POLYDATA
POINTS 501 float
0.000000e+00 0.000000e+00 0.000000e+00
1.000000e-02 0.000000e+00 0.000000e+00
2.000000e-02 0.000000e+00 0.000000e+00
3.000000e-02 0.000000e+00 0.000000e+00
4.000000e-02 0.000000e+00 0.000000e+00
5.000000e-02 0.000000e+00 0.000000e+00
6.000000e-02 0.000000e+00 0.000000e+00
7.000000e-02 0.000000e+00 0.000000e+00
8.000000e-02 0.000000e+00 0.000000e+00
9.000000e-02 0.000000e+00 0.000000e+00
1.000000e-01 0.000000e+00 0.000000e+00
1.100000e-01 0.000000e+00 0.000000e+00
1.200000e-01 0.000000e+00 0.000000e+00
1.300000e-01 0.000000e+00 0.000000e+00
1.400000e-01 0.000000e+00 0.000000e+00
1.500000e-01 0.000000e+00 0.000000e+00
1.600000e-01 0.000000e+00 0.000000e+00
1.700000e-01 0.000000e+00 0.000000e+00
1.800000e-01 0.000000e+00 0.000000e+00
1.900000e-01 0.000000e+00 0.000000e+00
2.000000e-01 0.000000e+00 0.000000e+00
2.100000e-01 0.000000e+00 0.000000e+00
2.200000e-01 0.000000e+00 0.000000e+00
2.300000e-01 0.000000e+00 0.000000e+00
2.400000e-01 0.000000e+00 0.000000e+00
2.500000e-01 0.000000e+00 0.000000e+00
2.600000e-01 0.000000e+00 0.000000e+00
2.700000e-01 0.000000e+00 0.000000e+00
2.800000e-01 0.000000e+00 0.000000e+00
2.900000e-01 0.000000e+00 0.000000e+00
3.000000e-01 0.000000e+00 0.000000e+00
3.100000e-01 0.000000e+00 0.000000e+00
3.200000e-01 0.000000e+00 0.000000e+00
3.300000e-01 0.000000e+00 0.000000e+00
3.400000e-01 0.000000e+00 0.000000e+00
3.500000e-01 0.000000e+00 0.000000e+00
3.600000e-01 0.000000e+00 0.000000e+00
3.700000e-01 0.000000e+00 0.000000e+00
3.800000e-01 0.000000e+00 0.000000e+00
3.900000e-01 0.000000e+00 0.000000e+00
4.000000e-01 0.000000e+00 0.000000e+00
4.100000e-01 0.000000e+00 0.000000e+00
4.200000e-01 0.000000e+00 0.000000e+00
4.300000e-01 0.000000e+00 0.000000e+00
4.400000e-01 0.000000e+00 0.000000e+00
4.500000e-01 0.000000e+00 0.000000e+00
4.600000e-01 0.000000e+00 0.000000e+00
4.700000e-01 0.000000e+00 0.000000e+00
4.800000e-01 0.000000e+00 0.000000e+00
4.900000e-01 0.000000e+00 0.000000e+00
5.000000e-01 0.000000e+00 0.000000e+00
5.100000e-01 0.000000e+00 0.000000e+00
5.200000e-01 0.000000e+00 0.000000e+00
5.300000e-01 0.000000e+00 0.000000e+00
5.400000e-01 0.000000e+00 0.000000e+00
5.500000e-01 0.000000e+00 0.000000e+00
5.600000e-01 0.000000e+00 0.000000e+00
5.700000e-01 0.000000e+00 0.000000e+00
5.800000e-01 0.000000e+00 0.000000e+00
5.900000e-01 0.000000e+00 0.000000e+00
6.000000e-01 0.000000e+00 0.000000e+00
6.100000e-01 0.000000e+00 0.000000e+00
6.200000e-01 0.000000e+00 0.000000e+00
6.300000e-01 0.000000e+00 0.000000e+00
6.400000e-01 0.000000e+00 0.000000e+00
6.500000e-01 0.000000e+00 0.000000e+00
6.600000e-01 0.000000e+00 0.000000e+00
6.700000e-01 0.000000e+00 0.000000e+00
6.800000e-01 0.000000e+00 0.000000e+00
6.900000e-01 0.000000e+00 0.000000e+00
7.000000e-01 0.000000e+00 0.000000e+00
7.100000e-01 0.000000e+00 0.000000e+00
7.200000e-01 0.000000e+00 0.000000e+00
7.300000e-01 0.000000e+00 0.000000e+00
7.400000e-01 0.000000e+00 0.000000e+00
7.500000e-01 0.000000e+00 0.000000e+00
7.600000e-01 0.000000e+00 0.000000e+00
7.700000e-01 0.000000e+00 0.000000e+00
7.800000e-01 0.000000e+00 0.000000e+00
7.900000e-01 0.000000e+00 0.000000e+00
8.000000e-01 0.000000e+00 0.000000e+00
8.100000e-01 0.000000e+00 0.000000e+00
8.200000e-01 0.000000e+00 0.000000e+00
8.300000e-01 0.000000e+00 0.000000e+00
8.400000e-01 0.000000e+00 0.000000e+00
8.500000e-01 0.000000e+00 0.000000e+00
8.600000e-01 0.000000e+00 0.000000e+00
8.700000e-01 0.000000e+00 0.000000e+00
8.800000e-01 0.000000e+00 0.000000e+00
8.900000e-01 0.000000e+00 0.000000e+00
9.000000e-01 0.000000e+00 0.000000e+00
9.100000e-01 0.000000e+00 0.000000e+00
9.200000e-01 0.000000e+00 0.000000e+00
9.300000e-01 0.000000e+00 0.000000e+00
9.400000e-01 0.000000e+00 0.000000e+00
9.500000e-01 0.000000e+00 0.000000e+00
9.600000e-01 0.000000e+00 0.000000e+00
9.700000e-01 0.000000e+00 0.000000e+00
9.800000e-01 0.000000e+00 0.000000e+00
9.900000e-01 0.000000e+00 0.000000e+00
1.000000e+00 0.000000e+00 0.000000e+00
1.010000e+00 0.000000e+00 0.000000e+00
1.020000e+00 0.000000e+00 0.000000e+00
1.030000e+00 0.000000e+00 0.000000e+00
1.040000e+00 0.000000e+00 0.000000e+00
1.050000e+00 0.000000e+00 0.000000e+00
1.060000e+00 0.000000e+00 0.000000e+00
1.070000e+00 0.000000e+00 0.000000e+00
1.080000e+00 0.000000e+00 0.000000e+00
1.090000e+00 0.000000e+00 0.000000e+00
1.100000e+00 0.000000e+00 0.000000e+00
1.110000e+00 0.000000e+00 0.000000e+00
1.120000e+00 0.000000e+00 0.000000e+00
1.130000e+00 0.000000e+00 0.000000e+00
1.140000e+00 0.000000e+00 0.000000e+00
1.150000e+00 0.000000e+00 0.000000e+00
1.160000e+00 0.000000e+00 0.000000e+00
1.170000e+00 0.000000e+00 0.000000e+00
1.180000e+00 0.000000e+00 0.000000e+00
1.190000e+00 0.000000e+00 0.000000e+00
1.200000e+00 0.000000e+00 0.000000e+00
1.210000e+00 0.000000e+00 0.000000e+00
1.220000e+00 0.000000e+00 0.000000e+00
1.230000e+00 0.000000e+00 0.000000e+00
1.240000e+00 0.000000e+00 0.000000e+00
1.250000e+00 0.000000e+00 0.000000e+00
1.260000e+00 0.000000e+00 0.000000e+00
1.270000e+00 0.000000e+00 0.000000e+00
1.280000e+00 0.000000e+00 0.000000e+00
1.290000e+00 0.000000e+00 0.000000e+00
1.300000e+00 0.000000e+00 0.000000e+00
1.310000e+00 0.000000e+00 0.000000e+00
1.320000e+00 0.000000e+00 0.000000e+00
1.330000e+00 0.000000e+00 0.000000e+00
1.340000e+00 0.000000e+00 0.000000e+00
1.350000e+00 0.000000e+00 0.000000e+00
1.360000e+00 0.000000e+00 0.000000e+00
1.370000e+00 0.000000e+00 0.000000e+00
1.380000e+00 0.000000e+00 0.000000e+00
1.390000e+00 0.000000e+00 0.000000e+00
1.400000e+00 0.000000e+00 0.000000e+00
1.410000e+00 0.000000e+00 0.000000e+00
1.420000e+00 0.000000e+00 0.000000e+00
1.430000e+00 0.000000e+00 0.000000e+00
1.440000e+00 0.000000e+00 0.000000e+00
1.450000e+00 0.000000e+00 0.000000e+00
1.460000e+00 0.000000e+00 0.000000e+00
1.470000e+00 0.000000e+00 0.000000e+00
1.480000e+00 0.000000e+00 0.000000e+00
1.490000e+00 0.000000e+00 0.000000e+00
1.500000e+00 0.000000e+00 0.000000e+00
1.510000e+00 0.000000e+00 0.000000e+00
1.520000e+00 0.000000e+00 0.000000e+00
1.530000e+00 0.000000e+00 0.000000e+00
1.540000e+00 0.000000e+00 0.000000e+00
1.550000e+00 0.000000e+00 0.000000e+00
1.560000e+00 0.000000e+00 0.000000e+00
1.570000e+00 0.000000e+00 0.000000e+00
1.580000e+00 0.000000e+00 0.000000e+00
1.590000e+00 0.000000e+00 0.000000e+00
1.600000e+00 0.000000e+00 0.000000e+00
1.610000e+00 0.000000e+00 0.000000e+00
1.620000e+00 0.000000e+00 0.000000e+00
1.630000e+00 0.000000e+00 0.000000e+00
1.640000e+00 0.000000e+00 0.000000e+00
1.650000e+00 0.000000e+00 0.000000e+00
1.660000e+00 0.000000e+00 0.000000e+00
1.670000e+00 0.000000e+00 0.000000e+00
1.680000e+00 0.000000e+00 0.000000e+00
1.690000e+00 0.000000e+00 0.000000e+00
1.700000e+00 0.000000e+00 0.000000e+00
1.710000e+00 0.000000e+00 0.000000e+00
1.720000e+00 0.000000e+00 0.000000e+00
1.730000e+00 0.000000e+00 0.000000e+00
1.740000e+00 0.000000e+00 0.000000e+00
1.750000e+00 0.000000e+00 0.000000e+00
1.760000e+00 0.000000e+00 0.000000e+00
1.770000e+00 0.000000e+00 0.000000e+00
1.780000e+00 0.000000e+00 0.000000e+00
1.790000e+00 0.000000e+00 0.000000e+00
1.800000e+00 0.000000e+00 0.000000e+00
1.810000e+00 0.000000e+00 0.000000e+00
1.820000e+00 0.000000e+00 0.000000e+00
1.830000e+00 0.000000e+00 0.000000e+00
1.840000e+00 0.000000e+00 0.000000e+00
1.850000e+00 0.000000e+00 0.000000e+00
1.860000e+00 0.000000e+00 0.000000e+00
1.870000e+00 0.000000e+00 0.000000e+00
1.880000e+00 0.000000e+00 0.000000e+00
1.890000e+00 0.000000e+00 0.000000e+00
1.900000e+00 0.000000e+00 0.000000e+00
1.910000e+00 0.000000e+00 0.000000e+00
1.920000e+00 0.000000e+00 0.000000e+00
1.930000e+00 0.000000e+00 0.000000e+00
1.940000e+00 0.000000e+00 0.000000e+00
1.950000e+00 0.000000e+00 0.000000e+00
1.960000e+00 0.000000e+00 0.000000e+00
1.970000e+00 0.000000e+00 0.000000e+00
1.980000e+00 0.000000e+00 0.000000e+00
1.990000e+00 0.000000e+00 0.000000e+00
2.000000e+00 0.000000e+00 0.000000e+00
2.010000e+00 0.000000e+00 0.000000e+00
2.020000e+00 0.000000e+00 0.000000e+00
2.030000e+00 0.000000e+00 0.000000e+00
2.040000e+00 0.000000e+00 0.000000e+00
2.050000e+00 0.000000e+00 0.000000e+00
2.060000e+00 0.000000e+00 0.000000e+00
2.070000e+00 0.000000e+00 0.000000e+00
2.080000e+00 0.000000e+00 0.000000e+00
2.090000e+00 0.000000e+00 0.000000e+00
2.100000e+00 0.000000e+00 0.000000e+00
2.110000e+00 0.000000e+00 0.000000e+00
2.120000e+00 0.000000e+00 0.000000e+00
2.130000e+00 0.000000e+00 0.000000e+00
2.140000e+00 0.000000e+00 0.000000e+00
2.150000e+00 0.000000e+00 0.000000e+00
2.160000e+00 0.000000e+00 0.000000e+00
2.170000e+00 0.000000e+00 0.000000e+00
2.180000e+00 0.000000e+00 0.000000e+00
2.190000e+00 0.000000e+00 0.000000e+00
2.200000e+00 0.000000e+00 0.000000e+00
2.210000e+00 0.000000e+00 0.000000e+00
2.220000e+00 0.000000e+00 0.000000e+00
2.230000e+00 0.000000e+00 0.000000e+00
2.240000e+00 0.000000e+00 0.000000e+00
2.250000e+00 0.000000e+00 0.000000e+00
2.260000e+00 0.000000e+00 0.000000e+00
2.270000e+00 0.000000e+00 0.000000e+00
2.280000e+00 0.000000e+00 0.000000e+00
2.290000e+00 0.000000e+00 0.000000e+00
2.300000e+00 0.000000e+00 0.000000e+00
2.310000e+00 0.000000e+00 0.000000e+00
2.320000e+00 0.000000e+00 0.000000e+00
2.330000e+00 0.000000e+00 0.000000e+00
2.340000e+00 0.000000e+00 0.000000e+00
2.350000e+00 0.000000e+00 0.000000e+00
2.360000e+00 0.000000e+00 0.000000e+00
2.370000e+00 0.000000e+00 0.000000e+00
2.380000e+00 0.000000e+00 0.000000e+00
2.390000e+00 0.000000e+00 0.000000e+00
2.400000e+00 0.000000e+00 0.000000e+00
2.410000e+00 0.000000e+00 0.000000e+00
2.420000e+00 0.000000e+00 0.000000e+00
2.430000e+00 0.000000e+00 0.000000e+00
2.440000e+00 0.000000e+00 0.000000e+00
2.450000e+00 0.000000e+00 0.000000e+00
2.460000e+00 0.000000e+00 0.000000e+00
2.470000e+00 0.000000e+00 0.000000e+00
2.480000e+00 0.000000e+00 0.000000e+00
2.490000e+00 0.000000e+00 0.000000e+00
2.500000e+00 0.000000e+00 0.000000e+00
2.510000e+00 0.000000e+00 0.000000e+00
2.520000e+00 0.000000e+00 0.000000e+00
2.530000e+00 0.000000e+00 0.000000e+00
[...]
POINT_DATA 501
SCALARS vm float 1
LOOKUP_TABLE default
-5.498433e+00
-5.498165e+00
-5.497630e+00
-5.496835e+00
-5.495792e+00
-5.494488e+00
-5.493000e+00
-5.491332e+00
-5.489484e+00
-5.487464e+00
-5.485285e+00
-5.482948e+00
-5.480464e+00
-5.477840e+00
-5.475079e+00
-5.472189e+00
-5.469177e+00
-5.466043e+00
-5.462797e+00
-5.459446e+00
-5.455987e+00
-5.452431e+00
-5.448784e+00
-5.445042e+00
-5.441216e+00
-5.437311e+00
-5.433323e+00
-5.429262e+00
-5.425132e+00
-5.420932e+00
-5.416667e+00
-5.412342e+00
-5.407957e+00
-5.403518e+00
-5.399022e+00
-5.394476e+00
-5.389885e+00
-5.385243e+00
-5.380557e+00
-5.375833e+00
-5.371066e+00
-5.366262e+00
-5.361423e+00
-5.356548e+00
-5.351644e+00
-5.346704e+00
-5.341735e+00
-5.336743e+00
-5.331719e+00
-5.326670e+00
-5.321601e+00
-5.316506e+00
-5.311391e+00
-5.306255e+00
-5.301098e+00
-5.295928e+00
-5.290735e+00
-5.285526e+00
-5.280305e+00
-5.275066e+00
-5.269813e+00
-5.264550e+00
-5.259271e+00
-5.253985e+00
-5.248684e+00
-5.243372e+00
-5.238055e+00
-5.232724e+00
-5.227384e+00
-5.222040e+00
-5.216686e+00
-5.211326e+00
-5.205958e+00
-5.200583e+00
-5.195207e+00
-5.189820e+00
-5.184428e+00
-5.179036e+00
-5.173635e+00
-5.168231e+00
-5.162826e+00
-5.157414e+00
-5.152004e+00
-5.146585e+00
-5.141164e+00
-5.135745e+00
-5.130319e+00
-5.124892e+00
-5.119466e+00
-5.114035e+00
-5.108607e+00
-5.103173e+00
-5.097738e+00
-5.092306e+00
-5.086869e+00
-5.081431e+00
-5.075997e+00
-5.070558e+00
-5.065122e+00
-5.059684e+00
-5.054244e+00
-5.048809e+00
-5.043369e+00
-5.037929e+00
-5.032494e+00
-5.027055e+00
-5.021617e+00
-5.016181e+00
-5.010743e+00
-5.005310e+00
-4.999872e+00
-4.994436e+00
-4.989004e+00
-4.983568e+00
-4.978134e+00
-4.972703e+00
-4.967270e+00
-4.961841e+00
-4.956410e+00
-4.950979e+00
-4.945553e+00
-4.940123e+00
-4.934695e+00
-4.929271e+00
-4.923844e+00
-4.918421e+00
-4.912997e+00
-4.907573e+00
-4.902154e+00
-4.896731e+00
-4.891310e+00
-4.885893e+00
-4.880474e+00
-4.875055e+00
-4.869641e+00
-4.864224e+00
-4.858812e+00
-4.853396e+00
-4.847982e+00
-4.842573e+00
-4.837160e+00
-4.831749e+00
-4.826341e+00
-4.820931e+00
-4.815525e+00
-4.810117e+00
-4.804710e+00
-4.799307e+00
-4.793901e+00
-4.788495e+00
-4.783094e+00
-4.777691e+00
-4.772290e+00
-4.766889e+00
-4.761487e+00
-4.756091e+00
-4.750690e+00
-4.745290e+00
-4.739895e+00
-4.734497e+00
-4.729099e+00
-4.723705e+00
-4.718309e+00
-4.712917e+00
-4.707521e+00
-4.702127e+00
-4.696737e+00
-4.691343e+00
-4.685950e+00
-4.680560e+00
-4.675168e+00
-4.669779e+00
-4.664389e+00
-4.658998e+00
-4.653612e+00
-4.648222e+00
-4.642832e+00
-4.637446e+00
-4.632058e+00
-4.626671e+00
-4.621284e+00
-4.615897e+00
-4.610514e+00
-4.605126e+00
-4.599739e+00
-4.594356e+00
-4.588970e+00
-4.583584e+00
-4.578201e+00
-4.572816e+00
-4.567434e+00
-4.562049e+00
-4.556664e+00
-4.551283e+00
-4.545898e+00
-4.540514e+00
-4.535133e+00
-4.529749e+00
-4.524368e+00
-4.518984e+00
-4.513600e+00
-4.508221e+00
-4.502837e+00
-4.497453e+00
-4.492073e+00
-4.486690e+00
-4.481308e+00
-4.475926e+00
-4.470542e+00
-4.465163e+00
-4.459779e+00
-4.454395e+00
-4.449016e+00
-4.443632e+00
-4.438248e+00
-4.432868e+00
-4.427484e+00
-4.422104e+00
-4.416720e+00
-4.411336e+00
-4.405956e+00
-4.400572e+00
-4.395187e+00
-4.389806e+00
-4.384422e+00
-4.379040e+00
-4.373656e+00
-4.368271e+00
-4.362890e+00
-4.357504e+00
-4.352119e+00
-4.346737e+00
-4.341351e+00
-4.335967e+00
-4.330582e+00
-4.325196e+00
-4.319813e+00
-4.314426e+00
-4.309039e+00
-4.303656e+00
-4.298268e+00
-4.292880e+00
-4.287496e+00
-4.282108e+00
-4.276723e+00
-4.271334e+00
-4.265945e+00
-4.260560e+00
-4.255170e+00
-4.249780e+00
-4.244394e+00
-4.239004e+00
-4.233616e+00
-4.228226e+00
-4.222835e+00
-4.217448e+00
-4.212056e+00
-4.206664e+00
-4.201275e+00
-4.195883e+00
-4.190491e+00
-4.185100e+00
-4.179707e+00
-4.174317e+00
-4.168923e+00
-4.163529e+00
-4.158138e+00
-4.152743e+00
-4.147348e+00
-4.141956e+00
-4.136561e+00
-4.131168e+00
-4.125772e+00
-4.120375e+00
-4.114983e+00
-4.109585e+00
-4.104188e+00
-4.098794e+00
-4.093396e+00
-4.088000e+00
-4.082603e+00
-4.077204e+00
-4.071810e+00
-4.066410e+00
-4.061011e+00
-4.055615e+00
-4.050215e+00
-4.044816e+00
-4.039418e+00
-4.034018e+00
-4.028621e+00
-4.023220e+00
-4.017820e+00
-4.012423e+00
-4.007021e+00
-4.001620e+00
-3.996221e+00
-3.990821e+00
-3.985421e+00
-3.980020e+00
-3.974618e+00
-3.969221e+00
-3.963818e+00
-3.958416e+00
-3.953017e+00
-3.947616e+00
-3.942216e+00
-3.936815e+00
-3.931413e+00
-3.926015e+00
-3.920613e+00
-3.915211e+00
-3.909813e+00
-3.904411e+00
-3.899010e+00
-3.893611e+00
-3.888211e+00
-3.882813e+00
-3.877412e+00
-3.872012e+00
-3.866616e+00
-3.861216e+00
-3.855816e+00
-3.850420e+00
-3.845022e+00
-3.839626e+00
-3.834229e+00
-3.828832e+00
-3.823439e+00
-3.818042e+00
-3.812646e+00
-3.807255e+00
-3.801861e+00
-3.796469e+00
-3.791077e+00
-3.785685e+00
-3.780297e+00
-3.774906e+00
-3.769517e+00
-3.764132e+00
-3.758744e+00
-3.753358e+00
-3.747975e+00
-3.742591e+00
-3.737211e+00
-3.731829e+00
-3.726449e+00
-3.721074e+00
-3.715696e+00
-3.710320e+00
-3.704948e+00
-3.699576e+00
-3.694207e+00
-3.688838e+00
-3.683471e+00
-3.678110e+00
-3.672746e+00
-3.667384e+00
-3.662028e+00
-3.656672e+00
-3.651319e+00
-3.645968e+00
-3.640619e+00
-3.635276e+00
-3.629931e+00
-3.624590e+00
-3.619255e+00
-3.613920e+00
-3.608588e+00
-3.603262e+00
-3.597938e+00
-3.592619e+00
-3.587301e+00
-3.581986e+00
-3.576680e+00
-3.571373e+00
-3.566071e+00
-3.560776e+00
-3.555484e+00
-3.550197e+00
-3.544914e+00
-3.539636e+00
-3.534366e+00
-3.529097e+00
-3.523834e+00
-3.518580e+00
-3.513330e+00
-3.508086e+00
-3.502848e+00
-3.497616e+00
-3.492394e+00
-3.487174e+00
-3.481963e+00
-3.476762e+00
-3.471565e+00
-3.466375e+00
-3.461197e+00
-3.456025e+00
-3.450863e+00
-3.445708e+00
-3.440562e+00
-3.435429e+00
-3.430302e+00
-3.425184e+00
-3.420080e+00
-3.414985e+00
-3.409901e+00
-3.404827e+00
-3.399765e+00
-3.394718e+00
-3.389679e+00
-3.384653e+00
-3.379643e+00
-3.374644e+00
-3.369660e+00
-3.364689e+00
-3.359733e+00
-3.354794e+00
-3.349868e+00
-3.344957e+00
-3.340067e+00
-3.335190e+00
-3.330330e+00
-3.325491e+00
-3.320668e+00
-3.315866e+00
-3.311081e+00
-3.306316e+00
-3.301575e+00
-3.296852e+00
-3.292149e+00
-3.287473e+00
-3.282817e+00
-3.278186e+00
-3.273578e+00
-3.268995e+00
-3.264441e+00
-3.259909e+00
-3.255404e+00
-3.250930e+00
-3.246483e+00
-3.242065e+00
-3.237677e+00
-3.233320e+00
-3.228997e+00
-3.224703e+00
-3.220443e+00
-3.216221e+00
-3.212031e+00
-3.207876e+00
-3.203762e+00
-3.199685e+00
-3.195647e+00
-3.191648e+00
-3.187691e+00
-3.183779e+00
-3.179906e+00
-3.176078e+00
-3.172299e+00
-3.168565e+00
-3.164880e+00
-3.161243e+00
-3.157656e+00
-3.154124e+00
-3.150642e+00
-3.147214e+00
-3.143846e+00
-3.140532e+00
-3.137277e+00
-3.134083e+00
-3.130951e+00
-3.127884e+00
-3.124878e+00
-3.121940e+00
-3.119073e+00
-3.116273e+00
-3.113544e+00
-3.110892e+00
-3.108314e+00
-3.105815e+00
-3.103394e+00
-3.101055e+00
-3.098804e+00
-3.096635e+00
-3.094556e+00
-3.092572e+00
-3.090680e+00
-3.088885e+00
-3.087194e+00
-3.085606e+00
-3.084126e+00
-3.082757e+00
-3.081509e+00
-3.080374e+00
-3.079366e+00
-3.078493e+00
-3.077768e+00
-3.077177e+00
-3.076723e+00
-3.076413e+00
-3.076257e+00
