# vtk DataFile Version 3.0
Monodomain MVF
ASCII
DATASET POLYDATA
POINTS 501 float
0.000000e+00 0.000000e+00 0.000000e+00
1.000000e-02 0.000000e+00 0.000000e+00
2.000000e-02 0.000000e+00 0.000000e+00
3.000000e-02 0.000000e+00 0.000000e+00
4.000000e-02 0.000000e+00 0.000000e+00
5.000000e-02 0.000000e+00 0.000000e+00
6.000000e-02 0.000000e+00 0.000000e+00
7.000000e-02 0.000000e+00 0.000000e+00
8.000000e-02 0.000000e+00 0.000000e+00
9.000000e-02 0.000000e+00 0.000000e+00
1.000000e-01 0.000000e+00 0.000000e+00
1.100000e-01 0.000000e+00 0.000000e+00
1.200000e-01 0.000000e+00 0.000000e+00
1.300000e-01 0.000000e+00 0.000000e+00
1.400000e-01 0.000000e+00 0.000000e+00
1.500000e-01 0.000000e+00 0.000000e+00
1.600000e-01 0.000000e+00 0.000000e+00
1.700000e-01 0.000000e+00 0.000000e+00
1.800000e-01 0.000000e+00 0.000000e+00
1.900000e-01 0.000000e+00 0.000000e+00
2.000000e-01 0.000000e+00 0.000000e+00
2.100000e-01 0.000000e+00 0.000000e+00
2.200000e-01 0.000000e+00 0.000000e+00
2.300000e-01 0.000000e+00 0.000000e+00
2.400000e-01 0.000000e+00 0.000000e+00
2.500000e-01 0.000000e+00 0.000000e+00
2.600000e-01 0.000000e+00 0.000000e+00
2.700000e-01 0.000000e+00 0.000000e+00
2.800000e-01 0.000000e+00 0.000000e+00
2.900000e-01 0.000000e+00 0.000000e+00
3.000000e-01 0.000000e+00 0.000000e+00
3.100000e-01 0.000000e+00 0.000000e+00
3.200000e-01 0.000000e+00 0.000000e+00
3.300000e-01 0.000000e+00 0.000000e+00
3.400000e-01 0.000000e+00 0.000000e+00
3.500000e-01 0.000000e+00 0.000000e+00
3.600000e-01 0.000000e+00 0.000000e+00
3.700000e-01 0.000000e+00 0.000000e+00
3.800000e-01 0.000000e+00 0.000000e+00
3.900000e-01 0.000000e+00 0.000000e+00
4.000000e-01 0.000000e+00 0.000000e+00
4.100000e-01 0.000000e+00 0.000000e+00
4.200000e-01 0.000000e+00 0.000000e+00
4.300000e-01 0.000000e+00 0.000000e+00
4.400000e-01 0.000000e+00 0.000000e+00
4.500000e-01 0.000000e+00 0.000000e+00
4.600000e-01 0.000000e+00 0.000000e+00
4.700000e-01 0.000000e+00 0.000000e+00
4.800000e-01 0.000000e+00 0.000000e+00
4.900000e-01 0.000000e+00 0.000000e+00
5.000000e-01 0.000000e+00 0.000000e+00
5.100000e-01 0.000000e+00 0.000000e+00
5.200000e-01 0.000000e+00 0.000000e+00
5.300000e-01 0.000000e+00 0.000000e+00
5.400000e-01 0.000000e+00 0.000000e+00
5.500000e-01 0.000000e+00 0.000000e+00
5.600000e-01 0.000000e+00 0.000000e+00
5.700000e-01 0.000000e+00 0.000000e+00
5.800000e-01 0.000000e+00 0.000000e+00
5.900000e-01 0.000000e+00 0.000000e+00
6.000000e-01 0.000000e+00 0.000000e+00
6.100000e-01 0.000000e+00 0.000000e+00
6.200000e-01 0.000000e+00 0.000000e+00
6.300000e-01 0.000000e+00 0.000000e+00
6.400000e-01 0.000000e+00 0.000000e+00
6.500000e-01 0.000000e+00 0.000000e+00
6.600000e-01 0.000000e+00 0.000000e+00
6.700000e-01 0.000000e+00 0.000000e+00
6.800000e-01 0.000000e+00 0.000000e+00
6.900000e-01 0.000000e+00 0.000000e+00
7.000000e-01 0.000000e+00 0.000000e+00
7.100000e-01 0.000000e+00 0.000000e+00
7.200000e-01 0.000000e+00 0.000000e+00
7.300000e-01 0.000000e+00 0.000000e+00
7.400000e-01 0.000000e+00 0.000000e+00
7.500000e-01 0.000000e+00 0.000000e+00
7.600000e-01 0.000000e+00 0.000000e+00
7.700000e-01 0.000000e+00 0.000000e+00
7.800000e-01 0.000000e+00 0.000000e+00
7.900000e-01 0.000000e+00 0.000000e+00
8.000000e-01 0.000000e+00 0.000000e+00
8.100000e-01 0.000000e+00 0.000000e+00
8.200000e-01 0.000000e+00 0.000000e+00
8.300000e-01 0.000000e+00 0.000000e+00
8.400000e-01 0.000000e+00 0.000000e+00
8.500000e-01 0.000000e+00 0.000000e+00
8.600000e-01 0.000000e+00 0.000000e+00
8.700000e-01 0.000000e+00 0.000000e+00
8.800000e-01 0.000000e+00 0.000000e+00
8.900000e-01 0.000000e+00 0.000000e+00
9.000000e-01 0.000000e+00 0.000000e+00
9.100000e-01 0.000000e+00 0.000000e+00
9.200000e-01 0.000000e+00 0.000000e+00
9.300000e-01 0.000000e+00 0.000000e+00
9.400000e-01 0.000000e+00 0.000000e+00
9.500000e-01 0.000000e+00 0.000000e+00
9.600000e-01 0.000000e+00 0.000000e+00
9.700000e-01 0.000000e+00 0.000000e+00
9.800000e-01 0.000000e+00 0.000000e+00
9.900000e-01 0.000000e+00 0.000000e+00
1.000000e+00 0.000000e+00 0.000000e+00
1.010000e+00 0.000000e+00 0.000000e+00
1.020000e+00 0.000000e+00 0.000000e+00
1.030000e+00 0.000000e+00 0.000000e+00
1.040000e+00 0.000000e+00 0.000000e+00
1.050000e+00 0.000000e+00 0.000000e+00
1.060000e+00 0.000000e+00 0.000000e+00
1.070000e+00 0.000000e+00 0.000000e+00
1.080000e+00 0.000000e+00 0.000000e+00
1.090000e+00 0.000000e+00 0.000000e+00
1.100000e+00 0.000000e+00 0.000000e+00
1.110000e+00 0.000000e+00 0.000000e+00
1.120000e+00 0.000000e+00 0.000000e+00
1.130000e+00 0.000000e+00 0.000000e+00
1.140000e+00 0.000000e+00 0.000000e+00
1.150000e+00 0.000000e+00 0.000000e+00
1.160000e+00 0.000000e+00 0.000000e+00
1.170000e+00 0.000000e+00 0.000000e+00
1.180000e+00 0.000000e+00 0.000000e+00
1.190000e+00 0.000000e+00 0.000000e+00
1.200000e+00 0.000000e+00 0.000000e+00
1.210000e+00 0.000000e+00 0.000000e+00
1.220000e+00 0.000000e+00 0.000000e+00
1.230000e+00 0.000000e+00 0.000000e+00
1.240000e+00 0.000000e+00 0.000000e+00
1.250000e+00 0.000000e+00 0.000000e+00
1.260000e+00 0.000000e+00 0.000000e+00
1.270000e+00 0.000000e+00 0.000000e+00
1.280000e+00 0.000000e+00 0.000000e+00
1.290000e+00 0.000000e+00 0.000000e+00
1.300000e+00 0.000000e+00 0.000000e+00
1.310000e+00 0.000000e+00 0.000000e+00
1.320000e+00 0.000000e+00 0.000000e+00
1.330000e+00 0.000000e+00 0.000000e+00
1.340000e+00 0.000000e+00 0.000000e+00
1.350000e+00 0.000000e+00 0.000000e+00
1.360000e+00 0.000000e+00 0.000000e+00
1.370000e+00 0.000000e+00 0.000000e+00
1.380000e+00 0.000000e+00 0.000000e+00
1.390000e+00 0.000000e+00 0.000000e+00
1.400000e+00 0.000000e+00 0.000000e+00
1.410000e+00 0.000000e+00 0.000000e+00
1.420000e+00 0.000000e+00 0.000000e+00
1.430000e+00 0.000000e+00 0.000000e+00
1.440000e+00 0.000000e+00 0.000000e+00
1.450000e+00 0.000000e+00 0.000000e+00
1.460000e+00 0.000000e+00 0.000000e+00
1.470000e+00 0.000000e+00 0.000000e+00
1.480000e+00 0.000000e+00 0.000000e+00
1.490000e+00 0.000000e+00 0.000000e+00
1.500000e+00 0.000000e+00 0.000000e+00
1.510000e+00 0.000000e+00 0.000000e+00
1.520000e+00 0.000000e+00 0.000000e+00
1.530000e+00 0.000000e+00 0.000000e+00
1.540000e+00 0.000000e+00 0.000000e+00
1.550000e+00 0.000000e+00 0.000000e+00
1.560000e+00 0.000000e+00 0.000000e+00
1.570000e+00 0.000000e+00 0.000000e+00
1.580000e+00 0.000000e+00 0.000000e+00
1.590000e+00 0.000000e+00 0.000000e+00
1.600000e+00 0.000000e+00 0.000000e+00
1.610000e+00 0.000000e+00 0.000000e+00
1.620000e+00 0.000000e+00 0.000000e+00
1.630000e+00 0.000000e+00 0.000000e+00
1.640000e+00 0.000000e+00 0.000000e+00
1.650000e+00 0.000000e+00 0.000000e+00
1.660000e+00 0.000000e+00 0.000000e+00
1.670000e+00 0.000000e+00 0.000000e+00
1.680000e+00 0.000000e+00 0.000000e+00
1.690000e+00 0.000000e+00 0.000000e+00
1.700000e+00 0.000000e+00 0.000000e+00
1.710000e+00 0.000000e+00 0.000000e+00
1.720000e+00 0.000000e+00 0.000000e+00
1.730000e+00 0.000000e+00 0.000000e+00
1.740000e+00 0.000000e+00 0.000000e+00
1.750000e+00 0.000000e+00 0.000000e+00
1.760000e+00 0.000000e+00 0.000000e+00
1.770000e+00 0.000000e+00 0.000000e+00
1.780000e+00 0.000000e+00 0.000000e+00
1.790000e+00 0.000000e+00 0.000000e+00
1.800000e+00 0.000000e+00 0.000000e+00
1.810000e+00 0.000000e+00 0.000000e+00
1.820000e+00 0.000000e+00 0.000000e+00
1.830000e+00 0.000000e+00 0.000000e+00
1.840000e+00 0.000000e+00 0.000000e+00
1.850000e+00 0.000000e+00 0.000000e+00
1.860000e+00 0.000000e+00 0.000000e+00
1.870000e+00 0.000000e+00 0.000000e+00
1.880000e+00 0.000000e+00 0.000000e+00
1.890000e+00 0.000000e+00 0.000000e+00
1.900000e+00 0.000000e+00 0.000000e+00
1.910000e+00 0.000000e+00 0.000000e+00
1.920000e+00 0.000000e+00 0.000000e+00
1.930000e+00 0.000000e+00 0.000000e+00
1.940000e+00 0.000000e+00 0.000000e+00
1.950000e+00 0.000000e+00 0.000000e+00
1.960000e+00 0.000000e+00 0.000000e+00
1.970000e+00 0.000000e+00 0.000000e+00
1.980000e+00 0.000000e+00 0.000000e+00
1.990000e+00 0.000000e+00 0.000000e+00
2.000000e+00 0.000000e+00 0.000000e+00
2.010000e+00 0.000000e+00 0.000000e+00
2.020000e+00 0.000000e+00 0.000000e+00
2.030000e+00 0.000000e+00 0.000000e+00
2.040000e+00 0.000000e+00 0.000000e+00
2.050000e+00 0.000000e+00 0.000000e+00
2.060000e+00 0.000000e+00 0.000000e+00
2.070000e+00 0.000000e+00 0.000000e+00
2.080000e+00 0.000000e+00 0.000000e+00
2.090000e+00 0.000000e+00 0.000000e+00
2.100000e+00 0.000000e+00 0.000000e+00
2.110000e+00 0.000000e+00 0.000000e+00
2.120000e+00 0.000000e+00 0.000000e+00
2.130000e+00 0.000000e+00 0.000000e+00
2.140000e+00 0.000000e+00 0.000000e+00
2.150000e+00 0.000000e+00 0.000000e+00
2.160000e+00 0.000000e+00 0.000000e+00
2.170000e+00 0.000000e+00 0.000000e+00
2.180000e+00 0.000000e+00 0.000000e+00
2.190000e+00 0.000000e+00 0.000000e+00
2.200000e+00 0.000000e+00 0.000000e+00
2.210000e+00 0.000000e+00 0.000000e+00
2.220000e+00 0.000000e+00 0.000000e+00
2.230000e+00 0.000000e+00 0.000000e+00
2.240000e+00 0.000000e+00 0.000000e+00
2.250000e+00 0.000000e+00 0.000000e+00
2.260000e+00 0.000000e+00 0.000000e+00
2.270000e+00 0.000000e+00 0.000000e+00
2.280000e+00 0.000000e+00 0.000000e+00
2.290000e+00 0.000000e+00 0.000000e+00
2.300000e+00 0.000000e+00 0.000000e+00
2.310000e+00 0.000000e+00 0.000000e+00
2.320000e+00 0.000000e+00 0.000000e+00
2.330000e+00 0.000000e+00 0.000000e+00
2.340000e+00 0.000000e+00 0.000000e+00
2.350000e+00 0.000000e+00 0.000000e+00
2.360000e+00 0.000000e+00 0.000000e+00
2.370000e+00 0.000000e+00 0.000000e+00
2.380000e+00 0.000000e+00 0.000000e+00
2.390000e+00 0.000000e+00 0.000000e+00
2.400000e+00 0.000000e+00 0.000000e+00
2.410000e+00 0.000000e+00 0.000000e+00
2.420000e+00 0.000000e+00 0.000000e+00
2.430000e+00 0.000000e+00 0.000000e+00
2.440000e+00 0.000000e+00 0.000000e+00
2.450000e+00 0.000000e+00 0.000000e+00
2.460000e+00 0.000000e+00 0.000000e+00
2.470000e+00 0.000000e+00 0.000000e+00
2.480000e+00 0.000000e+00 0.000000e+00
2.490000e+00 0.000000e+00 0.000000e+00
2.500000e+00 0.000000e+00 0.000000e+00
2.510000e+00 0.000000e+00 0.000000e+00
2.520000e+00 0.000000e+00 0.000000e+00
2.530000e+00 0.000000e+00 0.000000e+00
[...]
POINT_DATA 501
SCALARS vm float 1
LOOKUP_TABLE default
-7.171333e+01
-7.171318e+01
-7.171289e+01
-7.171244e+01
-7.171185e+01
-7.171108e+01
-7.171020e+01
-7.170919e+01
-7.170805e+01
-7.170676e+01
-7.170534e+01
-7.170379e+01
-7.170211e+01
-7.170029e+01
-7.169835e+01
-7.169627e+01
-7.169407e+01
-7.169174e+01
-7.168928e+01
-7.168669e+01
-7.168398e+01
-7.168115e+01
-7.167819e+01
-7.167511e+01
-7.167190e+01
-7.166858e+01
-7.166514e+01
-7.166157e+01
-7.165789e+01
-7.165409e+01
-7.165017e+01
-7.164614e+01
-7.164199e+01
-7.163772e+01
-7.163334e+01
-7.162884e+01
-7.162424e+01
-7.161951e+01
-7.161468e+01
-7.160974e+01
-7.160468e+01
-7.159951e+01
-7.159424e+01
-7.158885e+01
-7.158335e+01
-7.157775e+01
-7.157204e+01
-7.156622e+01
-7.156030e+01
-7.155427e+01
-7.154814e+01
-7.154190e+01
-7.153555e+01
-7.152910e+01
-7.152255e+01
-7.151590e+01
-7.150914e+01
-7.150229e+01
-7.149533e+01
-7.148827e+01
-7.148111e+01
-7.147385e+01
-7.146649e+01
-7.145904e+01
-7.145148e+01
-7.144383e+01
-7.143608e+01
-7.142823e+01
-7.142029e+01
-7.141225e+01
-7.140412e+01
-7.139589e+01
-7.138757e+01
-7.137916e+01
-7.137065e+01
-7.136205e+01
-7.135336e+01
-7.134457e+01
-7.133570e+01
-7.132673e+01
-7.131768e+01
-7.130853e+01
-7.129929e+01
-7.128997e+01
-7.128056e+01
-7.127106e+01
-7.126147e+01
-7.125180e+01
-7.124204e+01
-7.123219e+01
-7.122226e+01
-7.121225e+01
-7.120215e+01
-7.119196e+01
-7.118170e+01
-7.117135e+01
-7.116092e+01
-7.115040e+01
-7.113981e+01
-7.112913e+01
-7.111837e+01
-7.110754e+01
-7.109662e+01
-7.108563e+01
-7.107456e+01
-7.106341e+01
-7.105218e+01
-7.104088e+01
-7.102949e+01
-7.101804e+01
-7.100651e+01
-7.099490e+01
-7.098322e+01
-7.097146e+01
-7.095964e+01
-7.094774e+01
-7.093576e+01
-7.092372e+01
-7.091160e+01
-7.089941e+01
-7.088716e+01
-7.087483e+01
-7.086243e+01
-7.084997e+01
-7.083744e+01
-7.082484e+01
-7.081217e+01
-7.079943e+01
-7.078663e+01
-7.077377e+01
-7.076083e+01
-7.074784e+01
-7.073478e+01
-7.072166e+01
-7.070847e+01
-7.069522e+01
-7.068191e+01
-7.066854e+01
-7.065510e+01
-7.064161e+01
-7.062806e+01
-7.061444e+01
-7.060077e+01
-7.058704e+01
-7.057326e+01
-7.055941e+01
-7.054551e+01
-7.053155e+01
-7.051754e+01
-7.050347e+01
-7.048935e+01
-7.047517e+01
-7.046094e+01
-7.044666e+01
-7.043232e+01
-7.041794e+01
-7.040350e+01
-7.038901e+01
-7.037447e+01
-7.035988e+01
-7.034524e+01
-7.033055e+01
-7.031582e+01
-7.030104e+01
-7.028621e+01
-7.027133e+01
-7.025641e+01
-7.024144e+01
-7.022643e+01
-7.021138e+01
-7.019628e+01
-7.018114e+01
-7.016595e+01
-7.015073e+01
-7.013546e+01
-7.012015e+01
-7.010480e+01
-7.008941e+01
-7.007398e+01
-7.005852e+01
-7.004301e+01
-7.002747e+01
-7.001189e+01
-6.999627e+01
-6.998062e+01
-6.996494e+01
-6.994922e+01
-6.993346e+01
-6.991767e+01
-6.990185e+01
-6.988600e+01
-6.987011e+01
-6.985419e+01
-6.983824e+01
-6.982227e+01
-6.980626e+01
-6.979022e+01
-6.977415e+01
-6.975806e+01
-6.974194e+01
-6.972579e+01
-6.970962e+01
-6.969342e+01
-6.967720e+01
-6.966095e+01
-6.964468e+01
-6.962838e+01
-6.961206e+01
-6.959572e+01
-6.957936e+01
-6.956297e+01
-6.954657e+01
-6.953015e+01
-6.951370e+01
-6.949724e+01
-6.948076e+01
-6.946426e+01
-6.944775e+01
-6.943122e+01
-6.941467e+01
-6.939811e+01
-6.938153e+01
-6.936494e+01
-6.934834e+01
-6.933172e+01
-6.931509e+01
-6.929845e+01
-6.928180e+01
-6.926514e+01
-6.924846e+01
-6.923178e+01
-6.921509e+01
-6.919839e+01
-6.918168e+01
-6.916497e+01
-6.914824e+01
-6.913152e+01
-6.911478e+01
-6.909805e+01
-6.908131e+01
-6.906456e+01
-6.904781e+01
-6.903106e+01
-6.901431e+01
-6.899755e+01
-6.898080e+01
-6.896404e+01
-6.894729e+01
-6.893053e+01
-6.891378e+01
-6.889703e+01
-6.888028e+01
-6.886354e+01
-6.884680e+01
-6.883006e+01
-6.881333e+01
-6.879661e+01
-6.877989e+01
-6.876318e+01
-6.874647e+01
-6.872978e+01
-6.871309e+01
-6.869641e+01
-6.867974e+01
-6.866308e+01
-6.864643e+01
-6.862980e+01
-6.861317e+01
-6.859656e+01
-6.857996e+01
-6.856337e+01
-6.854680e+01
-6.853025e+01
-6.851371e+01
-6.849718e+01
-6.848067e+01
-6.846418e+01
-6.844771e+01
-6.843126e+01
-6.841482e+01
-6.839841e+01
-6.838201e+01
-6.836564e+01
-6.834928e+01
-6.833295e+01
-6.831664e+01
-6.830035e+01
-6.828409e+01
-6.826785e+01
-6.825164e+01
-6.823545e+01
-6.821928e+01
-6.820315e+01
-6.818704e+01
-6.817096e+01
-6.815490e+01
-6.813888e+01
-6.812288e+01
-6.810691e+01
-6.809098e+01
-6.807507e+01
-6.805920e+01
-6.804336e+01
-6.802755e+01
-6.801177e+01
-6.799603e+01
-6.798032e+01
-6.796465e+01
-6.794901e+01
-6.793341e+01
-6.791785e+01
-6.790232e+01
-6.788683e+01
-6.787138e+01
-6.785597e+01
-6.784059e+01
-6.782526e+01
-6.780997e+01
-6.779471e+01
-6.777950e+01
-6.776434e+01
-6.774921e+01
-6.773413e+01
-6.771909e+01
-6.770410e+01
-6.768915e+01
-6.767424e+01
-6.765938e+01
-6.764457e+01
-6.762981e+01
-6.761509e+01
-6.760042e+01
-6.758580e+01
-6.757123e+01
-6.755671e+01
-6.754224e+01
-6.752782e+01
-6.751346e+01
-6.749914e+01
-6.748488e+01
-6.747066e+01
-6.745651e+01
-6.744240e+01
-6.742835e+01
-6.741436e+01
-6.740042e+01
-6.738654e+01
-6.737272e+01
-6.735895e+01
-6.734524e+01
-6.733159e+01
-6.731799e+01
-6.730446e+01
-6.729099e+01
-6.727757e+01
-6.726422e+01
-6.725093e+01
-6.723770e+01
-6.722453e+01
-6.721143e+01
-6.719839e+01
-6.718541e+01
-6.717250e+01
-6.715965e+01
-6.714687e+01
-6.713415e+01
-6.712150e+01
-6.710892e+01
-6.709640e+01
-6.708396e+01
-6.707158e+01
-6.705927e+01
-6.704703e+01
-6.703486e+01
-6.702276e+01
-6.701073e+01
-6.699877e+01
-6.698688e+01
-6.697507e+01
-6.696333e+01
-6.695166e+01
-6.694006e+01
-6.692855e+01
-6.691710e+01
-6.690573e+01
-6.689444e+01
-6.688322e+01
-6.687208e+01
-6.686101e+01
-6.685002e+01
-6.683912e+01
-6.682829e+01
-6.681753e+01
-6.680686e+01
-6.679627e+01
-6.678576e+01
-6.677533e+01
-6.676497e+01
-6.675471e+01
-6.674452e+01
-6.673441e+01
-6.672439e+01
-6.671446e+01
-6.670460e+01
-6.669483e+01
-6.668515e+01
-6.667555e+01
-6.666603e+01
-6.665660e+01
-6.664726e+01
-6.663801e+01
-6.662884e+01
-6.661976e+01
-6.661076e+01
-6.660186e+01
-6.659304e+01
-6.658432e+01
-6.657568e+01
-6.656714e+01
-6.655868e+01
-6.655031e+01
-6.654204e+01
-6.653386e+01
-6.652577e+01
-6.651777e+01
-6.650987e+01
-6.650205e+01
-6.649433e+01
-6.648671e+01
-6.647918e+01
-6.647174e+01
-6.646441e+01
-6.645716e+01
-6.645001e+01
-6.644296e+01
-6.643600e+01
-6.642914e+01
-6.642238e+01
-6.641571e+01
-6.640915e+01
-6.640268e+01
-6.639630e+01
-6.639003e+01
-6.638386e+01
-6.637779e+01
-6.637181e+01
-6.636594e+01
-6.636017e+01
-6.635449e+01
-6.634892e+01
-6.634345e+01
-6.633808e+01
-6.633282e+01
-6.632765e+01
-6.632259e+01
-6.631763e+01
-6.631277e+01
-6.630802e+01
-6.630337e+01
-6.629882e+01
-6.629438e+01
-6.629004e+01
-6.628581e+01
-6.628168e+01
-6.627766e+01
-6.627374e+01
-6.626993e+01
-6.626622e+01
-6.626262e+01
-6.625912e+01
-6.625573e+01
-6.625245e+01
-6.624927e+01
-6.624620e+01
-6.624324e+01
-6.624038e+01
-6.623763e+01
-6.623499e+01
-6.623245e+01
-6.623003e+01
-6.622771e+01
-6.622550e+01
-6.622339e+01
-6.622140e+01
-6.621951e+01
-6.621773e+01
-6.621606e+01
-6.621450e+01
-6.621305e+01
-6.621171e+01
-6.621048e+01
-6.620935e+01
-6.620834e+01
-6.620744e+01
-6.620665e+01
-6.620597e+01
-6.620540e+01
-6.620495e+01
-6.620461e+01
-6.620438e+01
-6.620427e+01
