# vtk DataFile Version 3.0
Monodomain MVF
ASCII
DATASET POLYDATA
POINTS 501 float
0.000000e+00 0.000000e+00 0.000000e+00
1.000000e-02 0.000000e+00 0.000000e+00
2.000000e-02 0.000000e+00 0.000000e+00
3.000000e-02 0.000000e+00 0.000000e+00
4.000000e-02 0.000000e+00 0.000000e+00
5.000000e-02 0.000000e+00 0.000000e+00
6.000000e-02 0.000000e+00 0.000000e+00
7.000000e-02 0.000000e+00 0.000000e+00
8.000000e-02 0.000000e+00 0.000000e+00
9.000000e-02 0.000000e+00 0.000000e+00
1.000000e-01 0.000000e+00 0.000000e+00
1.100000e-01 0.000000e+00 0.000000e+00
1.200000e-01 0.000000e+00 0.000000e+00
1.300000e-01 0.000000e+00 0.000000e+00
1.400000e-01 0.000000e+00 0.000000e+00
1.500000e-01 0.000000e+00 0.000000e+00
1.600000e-01 0.000000e+00 0.000000e+00
1.700000e-01 0.000000e+00 0.000000e+00
1.800000e-01 0.000000e+00 0.000000e+00
1.900000e-01 0.000000e+00 0.000000e+00
2.000000e-01 0.000000e+00 0.000000e+00
2.100000e-01 0.000000e+00 0.000000e+00
2.200000e-01 0.000000e+00 0.000000e+00
2.300000e-01 0.000000e+00 0.000000e+00
2.400000e-01 0.000000e+00 0.000000e+00
2.500000e-01 0.000000e+00 0.000000e+00
2.600000e-01 0.000000e+00 0.000000e+00
2.700000e-01 0.000000e+00 0.000000e+00
2.800000e-01 0.000000e+00 0.000000e+00
2.900000e-01 0.000000e+00 0.000000e+00
3.000000e-01 0.000000e+00 0.000000e+00
3.100000e-01 0.000000e+00 0.000000e+00
3.200000e-01 0.000000e+00 0.000000e+00
3.300000e-01 0.000000e+00 0.000000e+00
3.400000e-01 0.000000e+00 0.000000e+00
3.500000e-01 0.000000e+00 0.000000e+00
3.600000e-01 0.000000e+00 0.000000e+00
3.700000e-01 0.000000e+00 0.000000e+00
3.800000e-01 0.000000e+00 0.000000e+00
3.900000e-01 0.000000e+00 0.000000e+00
4.000000e-01 0.000000e+00 0.000000e+00
4.100000e-01 0.000000e+00 0.000000e+00
4.200000e-01 0.000000e+00 0.000000e+00
4.300000e-01 0.000000e+00 0.000000e+00
4.400000e-01 0.000000e+00 0.000000e+00
4.500000e-01 0.000000e+00 0.000000e+00
4.600000e-01 0.000000e+00 0.000000e+00
4.700000e-01 0.000000e+00 0.000000e+00
4.800000e-01 0.000000e+00 0.000000e+00
4.900000e-01 0.000000e+00 0.000000e+00
5.000000e-01 0.000000e+00 0.000000e+00
5.100000e-01 0.000000e+00 0.000000e+00
5.200000e-01 0.000000e+00 0.000000e+00
5.300000e-01 0.000000e+00 0.000000e+00
5.400000e-01 0.000000e+00 0.000000e+00
5.500000e-01 0.000000e+00 0.000000e+00
5.600000e-01 0.000000e+00 0.000000e+00
5.700000e-01 0.000000e+00 0.000000e+00
5.800000e-01 0.000000e+00 0.000000e+00
5.900000e-01 0.000000e+00 0.000000e+00
6.000000e-01 0.000000e+00 0.000000e+00
6.100000e-01 0.000000e+00 0.000000e+00
6.200000e-01 0.000000e+00 0.000000e+00
6.300000e-01 0.000000e+00 0.000000e+00
6.400000e-01 0.000000e+00 0.000000e+00
6.500000e-01 0.000000e+00 0.000000e+00
6.600000e-01 0.000000e+00 0.000000e+00
6.700000e-01 0.000000e+00 0.000000e+00
6.800000e-01 0.000000e+00 0.000000e+00
6.900000e-01 0.000000e+00 0.000000e+00
7.000000e-01 0.000000e+00 0.000000e+00
7.100000e-01 0.000000e+00 0.000000e+00
7.200000e-01 0.000000e+00 0.000000e+00
7.300000e-01 0.000000e+00 0.000000e+00
7.400000e-01 0.000000e+00 0.000000e+00
7.500000e-01 0.000000e+00 0.000000e+00
7.600000e-01 0.000000e+00 0.000000e+00
7.700000e-01 0.000000e+00 0.000000e+00
7.800000e-01 0.000000e+00 0.000000e+00
7.900000e-01 0.000000e+00 0.000000e+00
8.000000e-01 0.000000e+00 0.000000e+00
8.100000e-01 0.000000e+00 0.000000e+00
8.200000e-01 0.000000e+00 0.000000e+00
8.300000e-01 0.000000e+00 0.000000e+00
8.400000e-01 0.000000e+00 0.000000e+00
8.500000e-01 0.000000e+00 0.000000e+00
8.600000e-01 0.000000e+00 0.000000e+00
8.700000e-01 0.000000e+00 0.000000e+00
8.800000e-01 0.000000e+00 0.000000e+00
8.900000e-01 0.000000e+00 0.000000e+00
9.000000e-01 0.000000e+00 0.000000e+00
9.100000e-01 0.000000e+00 0.000000e+00
9.200000e-01 0.000000e+00 0.000000e+00
9.300000e-01 0.000000e+00 0.000000e+00
9.400000e-01 0.000000e+00 0.000000e+00
9.500000e-01 0.000000e+00 0.000000e+00
9.600000e-01 0.000000e+00 0.000000e+00
9.700000e-01 0.000000e+00 0.000000e+00
9.800000e-01 0.000000e+00 0.000000e+00
9.900000e-01 0.000000e+00 0.000000e+00
1.000000e+00 0.000000e+00 0.000000e+00
1.010000e+00 0.000000e+00 0.000000e+00
1.020000e+00 0.000000e+00 0.000000e+00
1.030000e+00 0.000000e+00 0.000000e+00
1.040000e+00 0.000000e+00 0.000000e+00
1.050000e+00 0.000000e+00 0.000000e+00
1.060000e+00 0.000000e+00 0.000000e+00
1.070000e+00 0.000000e+00 0.000000e+00
1.080000e+00 0.000000e+00 0.000000e+00
1.090000e+00 0.000000e+00 0.000000e+00
1.100000e+00 0.000000e+00 0.000000e+00
1.110000e+00 0.000000e+00 0.000000e+00
1.120000e+00 0.000000e+00 0.000000e+00
1.130000e+00 0.000000e+00 0.000000e+00
1.140000e+00 0.000000e+00 0.000000e+00
1.150000e+00 0.000000e+00 0.000000e+00
1.160000e+00 0.000000e+00 0.000000e+00
1.170000e+00 0.000000e+00 0.000000e+00
1.180000e+00 0.000000e+00 0.000000e+00
1.190000e+00 0.000000e+00 0.000000e+00
1.200000e+00 0.000000e+00 0.000000e+00
1.210000e+00 0.000000e+00 0.000000e+00
1.220000e+00 0.000000e+00 0.000000e+00
1.230000e+00 0.000000e+00 0.000000e+00
1.240000e+00 0.000000e+00 0.000000e+00
1.250000e+00 0.000000e+00 0.000000e+00
1.260000e+00 0.000000e+00 0.000000e+00
1.270000e+00 0.000000e+00 0.000000e+00
1.280000e+00 0.000000e+00 0.000000e+00
1.290000e+00 0.000000e+00 0.000000e+00
1.300000e+00 0.000000e+00 0.000000e+00
1.310000e+00 0.000000e+00 0.000000e+00
1.320000e+00 0.000000e+00 0.000000e+00
1.330000e+00 0.000000e+00 0.000000e+00
1.340000e+00 0.000000e+00 0.000000e+00
1.350000e+00 0.000000e+00 0.000000e+00
1.360000e+00 0.000000e+00 0.000000e+00
1.370000e+00 0.000000e+00 0.000000e+00
1.380000e+00 0.000000e+00 0.000000e+00
1.390000e+00 0.000000e+00 0.000000e+00
1.400000e+00 0.000000e+00 0.000000e+00
1.410000e+00 0.000000e+00 0.000000e+00
1.420000e+00 0.000000e+00 0.000000e+00
1.430000e+00 0.000000e+00 0.000000e+00
1.440000e+00 0.000000e+00 0.000000e+00
1.450000e+00 0.000000e+00 0.000000e+00
1.460000e+00 0.000000e+00 0.000000e+00
1.470000e+00 0.000000e+00 0.000000e+00
1.480000e+00 0.000000e+00 0.000000e+00
1.490000e+00 0.000000e+00 0.000000e+00
1.500000e+00 0.000000e+00 0.000000e+00
1.510000e+00 0.000000e+00 0.000000e+00
1.520000e+00 0.000000e+00 0.000000e+00
1.530000e+00 0.000000e+00 0.000000e+00
1.540000e+00 0.000000e+00 0.000000e+00
1.550000e+00 0.000000e+00 0.000000e+00
1.560000e+00 0.000000e+00 0.000000e+00
1.570000e+00 0.000000e+00 0.000000e+00
1.580000e+00 0.000000e+00 0.000000e+00
1.590000e+00 0.000000e+00 0.000000e+00
1.600000e+00 0.000000e+00 0.000000e+00
1.610000e+00 0.000000e+00 0.000000e+00
1.620000e+00 0.000000e+00 0.000000e+00
1.630000e+00 0.000000e+00 0.000000e+00
1.640000e+00 0.000000e+00 0.000000e+00
1.650000e+00 0.000000e+00 0.000000e+00
1.660000e+00 0.000000e+00 0.000000e+00
1.670000e+00 0.000000e+00 0.000000e+00
1.680000e+00 0.000000e+00 0.000000e+00
1.690000e+00 0.000000e+00 0.000000e+00
1.700000e+00 0.000000e+00 0.000000e+00
1.710000e+00 0.000000e+00 0.000000e+00
1.720000e+00 0.000000e+00 0.000000e+00
1.730000e+00 0.000000e+00 0.000000e+00
1.740000e+00 0.000000e+00 0.000000e+00
1.750000e+00 0.000000e+00 0.000000e+00
1.760000e+00 0.000000e+00 0.000000e+00
1.770000e+00 0.000000e+00 0.000000e+00
1.780000e+00 0.000000e+00 0.000000e+00
1.790000e+00 0.000000e+00 0.000000e+00
1.800000e+00 0.000000e+00 0.000000e+00
1.810000e+00 0.000000e+00 0.000000e+00
1.820000e+00 0.000000e+00 0.000000e+00
1.830000e+00 0.000000e+00 0.000000e+00
1.840000e+00 0.000000e+00 0.000000e+00
1.850000e+00 0.000000e+00 0.000000e+00
1.860000e+00 0.000000e+00 0.000000e+00
1.870000e+00 0.000000e+00 0.000000e+00
1.880000e+00 0.000000e+00 0.000000e+00
1.890000e+00 0.000000e+00 0.000000e+00
1.900000e+00 0.000000e+00 0.000000e+00
1.910000e+00 0.000000e+00 0.000000e+00
1.920000e+00 0.000000e+00 0.000000e+00
1.930000e+00 0.000000e+00 0.000000e+00
1.940000e+00 0.000000e+00 0.000000e+00
1.950000e+00 0.000000e+00 0.000000e+00
1.960000e+00 0.000000e+00 0.000000e+00
1.970000e+00 0.000000e+00 0.000000e+00
1.980000e+00 0.000000e+00 0.000000e+00
1.990000e+00 0.000000e+00 0.000000e+00
2.000000e+00 0.000000e+00 0.000000e+00
2.010000e+00 0.000000e+00 0.000000e+00
2.020000e+00 0.000000e+00 0.000000e+00
2.030000e+00 0.000000e+00 0.000000e+00
2.040000e+00 0.000000e+00 0.000000e+00
2.050000e+00 0.000000e+00 0.000000e+00
2.060000e+00 0.000000e+00 0.000000e+00
2.070000e+00 0.000000e+00 0.000000e+00
2.080000e+00 0.000000e+00 0.000000e+00
2.090000e+00 0.000000e+00 0.000000e+00
2.100000e+00 0.000000e+00 0.000000e+00
2.110000e+00 0.000000e+00 0.000000e+00
2.120000e+00 0.000000e+00 0.000000e+00
2.130000e+00 0.000000e+00 0.000000e+00
2.140000e+00 0.000000e+00 0.000000e+00
2.150000e+00 0.000000e+00 0.000000e+00
2.160000e+00 0.000000e+00 0.000000e+00
2.170000e+00 0.000000e+00 0.000000e+00
2.180000e+00 0.000000e+00 0.000000e+00
2.190000e+00 0.000000e+00 0.000000e+00
2.200000e+00 0.000000e+00 0.000000e+00
2.210000e+00 0.000000e+00 0.000000e+00
2.220000e+00 0.000000e+00 0.000000e+00
2.230000e+00 0.000000e+00 0.000000e+00
2.240000e+00 0.000000e+00 0.000000e+00
2.250000e+00 0.000000e+00 0.000000e+00
2.260000e+00 0.000000e+00 0.000000e+00
2.270000e+00 0.000000e+00 0.000000e+00
2.280000e+00 0.000000e+00 0.000000e+00
2.290000e+00 0.000000e+00 0.000000e+00
2.300000e+00 0.000000e+00 0.000000e+00
2.310000e+00 0.000000e+00 0.000000e+00
2.320000e+00 0.000000e+00 0.000000e+00
2.330000e+00 0.000000e+00 0.000000e+00
2.340000e+00 0.000000e+00 0.000000e+00
2.350000e+00 0.000000e+00 0.000000e+00
2.360000e+00 0.000000e+00 0.000000e+00
2.370000e+00 0.000000e+00 0.000000e+00
2.380000e+00 0.000000e+00 0.000000e+00
2.390000e+00 0.000000e+00 0.000000e+00
2.400000e+00 0.000000e+00 0.000000e+00
2.410000e+00 0.000000e+00 0.000000e+00
2.420000e+00 0.000000e+00 0.000000e+00
2.430000e+00 0.000000e+00 0.000000e+00
2.440000e+00 0.000000e+00 0.000000e+00
2.450000e+00 0.000000e+00 0.000000e+00
2.460000e+00 0.000000e+00 0.000000e+00
2.470000e+00 0.000000e+00 0.000000e+00
2.480000e+00 0.000000e+00 0.000000e+00
2.490000e+00 0.000000e+00 0.000000e+00
2.500000e+00 0.000000e+00 0.000000e+00
2.510000e+00 0.000000e+00 0.000000e+00
2.520000e+00 0.000000e+00 0.000000e+00
2.530000e+00 0.000000e+00 0.000000e+00
[...]
POINT_DATA 501
SCALARS vm float 1
LOOKUP_TABLE default
-6.146713e+01
-6.146697e+01
-6.146666e+01
-6.146619e+01
-6.146557e+01
-6.146478e+01
-6.146386e+01
-6.146280e+01
-6.146159e+01
-6.146024e+01
-6.145876e+01
-6.145713e+01
-6.145537e+01
-6.145347e+01
-6.145144e+01
-6.144927e+01
-6.144698e+01
-6.144455e+01
-6.144199e+01
-6.143931e+01
-6.143650e+01
-6.143356e+01
-6.143050e+01
-6.142731e+01
-6.142401e+01
-6.142058e+01
-6.141703e+01
-6.141337e+01
-6.140958e+01
-6.140568e+01
-6.140166e+01
-6.139753e+01
-6.139329e+01
-6.138893e+01
-6.138445e+01
-6.137987e+01
-6.137518e+01
-6.137037e+01
-6.136546e+01
-6.136044e+01
-6.135531e+01
-6.135007e+01
-6.134473e+01
-6.133928e+01
-6.133373e+01
-6.132808e+01
-6.132232e+01
-6.131646e+01
-6.131050e+01
-6.130443e+01
-6.129827e+01
-6.129201e+01
-6.128565e+01
-6.127919e+01
-6.127263e+01
-6.126598e+01
-6.125923e+01
-6.125238e+01
-6.124544e+01
-6.123841e+01
-6.123128e+01
-6.122406e+01
-6.121674e+01
-6.120934e+01
-6.120184e+01
-6.119425e+01
-6.118657e+01
-6.117880e+01
-6.117094e+01
-6.116300e+01
-6.115496e+01
-6.114684e+01
-6.113863e+01
-6.113034e+01
-6.112196e+01
-6.111349e+01
-6.110494e+01
-6.109631e+01
-6.108759e+01
-6.107879e+01
-6.106991e+01
-6.106094e+01
-6.105190e+01
-6.104277e+01
-6.103356e+01
-6.102428e+01
-6.101491e+01
-6.100547e+01
-6.099595e+01
-6.098635e+01
-6.097667e+01
-6.096692e+01
-6.095709e+01
-6.094718e+01
-6.093720e+01
-6.092715e+01
-6.091702e+01
-6.090682e+01
-6.089655e+01
-6.088620e+01
-6.087578e+01
-6.086529e+01
-6.085473e+01
-6.084410e+01
-6.083340e+01
-6.082263e+01
-6.081179e+01
-6.080088e+01
-6.078991e+01
-6.077887e+01
-6.076776e+01
-6.075659e+01
-6.074535e+01
-6.073404e+01
-6.072267e+01
-6.071124e+01
-6.069974e+01
-6.068818e+01
-6.067656e+01
-6.066487e+01
-6.065313e+01
-6.064132e+01
-6.062945e+01
-6.061752e+01
-6.060554e+01
-6.059349e+01
-6.058139e+01
-6.056922e+01
-6.055700e+01
-6.054472e+01
-6.053239e+01
-6.052000e+01
-6.050756e+01
-6.049506e+01
-6.048250e+01
-6.046989e+01
-6.045723e+01
-6.044452e+01
-6.043175e+01
-6.041893e+01
-6.040606e+01
-6.039314e+01
-6.038017e+01
-6.036715e+01
-6.035408e+01
-6.034096e+01
-6.032779e+01
-6.031457e+01
-6.030131e+01
-6.028800e+01
-6.027465e+01
-6.026124e+01
-6.024780e+01
-6.023430e+01
-6.022077e+01
-6.020719e+01
-6.019357e+01
-6.017990e+01
-6.016619e+01
-6.015244e+01
-6.013865e+01
-6.012482e+01
-6.011095e+01
-6.009704e+01
-6.008308e+01
-6.006909e+01
-6.005507e+01
-6.004100e+01
-6.002690e+01
-6.001276e+01
-5.999858e+01
-5.998437e+01
-5.997012e+01
-5.995584e+01
-5.994153e+01
-5.992718e+01
-5.991280e+01
-5.989838e+01
-5.988393e+01
-5.986945e+01
-5.985494e+01
-5.984040e+01
-5.982583e+01
-5.981123e+01
-5.979660e+01
-5.978194e+01
-5.976726e+01
-5.975254e+01
-5.973780e+01
-5.972303e+01
-5.970824e+01
-5.969342e+01
-5.967857e+01
-5.966370e+01
-5.964881e+01
-5.963389e+01
-5.961895e+01
-5.960398e+01
-5.958900e+01
-5.957399e+01
-5.955896e+01
-5.954391e+01
-5.952884e+01
-5.951375e+01
-5.949864e+01
-5.948352e+01
-5.946837e+01
-5.945321e+01
-5.943802e+01
-5.942283e+01
-5.940761e+01
-5.939238e+01
-5.937714e+01
-5.936188e+01
-5.934660e+01
-5.933132e+01
-5.931602e+01
-5.930070e+01
-5.928538e+01
-5.927004e+01
-5.925469e+01
-5.923933e+01
-5.922396e+01
-5.920858e+01
-5.919319e+01
-5.917779e+01
-5.916238e+01
-5.914696e+01
-5.913154e+01
-5.911611e+01
-5.910068e+01
-5.908524e+01
-5.906979e+01
-5.905434e+01
-5.903888e+01
-5.902342e+01
-5.900796e+01
-5.899249e+01
-5.897702e+01
-5.896155e+01
-5.894607e+01
-5.893060e+01
-5.891513e+01
-5.889965e+01
-5.888418e+01
-5.886870e+01
-5.885323e+01
-5.883776e+01
-5.882229e+01
-5.880683e+01
-5.879137e+01
-5.877591e+01
-5.876046e+01
-5.874501e+01
-5.872956e+01
-5.871413e+01
-5.869870e+01
-5.868327e+01
-5.866785e+01
-5.865244e+01
-5.863704e+01
-5.862165e+01
-5.860627e+01
-5.859089e+01
-5.857553e+01
-5.856018e+01
-5.854484e+01
-5.852951e+01
-5.851419e+01
-5.849888e+01
-5.848359e+01
-5.846831e+01
-5.845305e+01
-5.843780e+01
-5.842256e+01
-5.840734e+01
-5.839214e+01
-5.837695e+01
-5.836178e+01
-5.834663e+01
-5.833150e+01
-5.831638e+01
-5.830128e+01
-5.828621e+01
-5.827115e+01
-5.825611e+01
-5.824109e+01
-5.822610e+01
-5.821113e+01
-5.819618e+01
-5.818125e+01
-5.816634e+01
-5.815146e+01
-5.813661e+01
-5.812177e+01
-5.810697e+01
-5.809219e+01
-5.807743e+01
-5.806270e+01
-5.804800e+01
-5.803333e+01
-5.801868e+01
-5.800407e+01
-5.798948e+01
-5.797492e+01
-5.796040e+01
-5.794590e+01
-5.793143e+01
-5.791700e+01
-5.790260e+01
-5.788823e+01
-5.787389e+01
-5.785959e+01
-5.784532e+01
-5.783108e+01
-5.781688e+01
-5.780272e+01
-5.778859e+01
-5.777450e+01
-5.776045e+01
-5.774643e+01
-5.773245e+01
-5.771851e+01
-5.770461e+01
-5.769074e+01
-5.767692e+01
-5.766314e+01
-5.764939e+01
-5.763569e+01
-5.762203e+01
-5.760842e+01
-5.759484e+01
-5.758131e+01
-5.756783e+01
-5.755438e+01
-5.754098e+01
-5.752763e+01
-5.751432e+01
-5.750106e+01
-5.748785e+01
-5.747468e+01
-5.746156e+01
-5.744849e+01
-5.743547e+01
-5.742249e+01
-5.740957e+01
-5.739669e+01
-5.738387e+01
-5.737109e+01
-5.735837e+01
-5.734570e+01
-5.733308e+01
-5.732052e+01
-5.730801e+01
-5.729555e+01
-5.728315e+01
-5.727080e+01
-5.725850e+01
-5.724627e+01
-5.723408e+01
-5.722196e+01
-5.720989e+01
-5.719788e+01
-5.718593e+01
-5.717404e+01
-5.716220e+01
-5.715043e+01
-5.713871e+01
-5.712706e+01
-5.711547e+01
-5.710393e+01
-5.709246e+01
-5.708106e+01
-5.706971e+01
-5.705843e+01
-5.704721e+01
-5.703606e+01
-5.702497e+01
-5.701395e+01
-5.700299e+01
-5.699210e+01
-5.698127e+01
-5.697051e+01
-5.695982e+01
-5.694920e+01
-5.693865e+01
-5.692816e+01
-5.691774e+01
-5.690740e+01
-5.689712e+01
-5.688692e+01
-5.687678e+01
-5.686672e+01
-5.685673e+01
-5.684681e+01
-5.683697e+01
-5.682719e+01
-5.681750e+01
-5.680787e+01
-5.679832e+01
-5.678885e+01
-5.677945e+01
-5.677013e+01
-5.676088e+01
-5.675172e+01
-5.674263e+01
-5.673361e+01
-5.672468e+01
-5.671582e+01
-5.670704e+01
-5.669835e+01
-5.668973e+01
-5.668119e+01
-5.667273e+01
-5.666436e+01
-5.665607e+01
-5.664785e+01
-5.663972e+01
-5.663168e+01
-5.662371e+01
-5.661584e+01
-5.660804e+01
-5.660033e+01
-5.659271e+01
-5.658516e+01
-5.657771e+01
-5.657034e+01
-5.656306e+01
-5.655587e+01
-5.654876e+01
-5.654174e+01
-5.653481e+01
-5.652796e+01
-5.652121e+01
-5.651454e+01
-5.650797e+01
-5.650148e+01
-5.649509e+01
-5.648878e+01
-5.648257e+01
-5.647645e+01
-5.647042e+01
-5.646448e+01
-5.645863e+01
-5.645288e+01
-5.644722e+01
-5.644166e+01
-5.643618e+01
-5.643081e+01
-5.642552e+01
-5.642033e+01
-5.641524e+01
-5.641024e+01
-5.640534e+01
-5.640053e+01
-5.639582e+01
-5.639121e+01
-5.638669e+01
-5.638228e+01
-5.637795e+01
-5.637373e+01
-5.636960e+01
-5.636558e+01
-5.636165e+01
-5.635782e+01
-5.635409e+01
-5.635046e+01
-5.634693e+01
-5.634349e+01
-5.634016e+01
-5.633693e+01
-5.633380e+01
-5.633077e+01
-5.632784e+01
-5.632501e+01
-5.632228e+01
-5.631966e+01
-5.631713e+01
-5.631471e+01
-5.631239e+01
-5.631017e+01
-5.630805e+01
-5.630604e+01
-5.630413e+01
-5.630232e+01
-5.630062e+01
-5.629902e+01
-5.629752e+01
-5.629612e+01
-5.629483e+01
-5.629365e+01
-5.629257e+01
-5.629159e+01
-5.629072e+01
-5.628996e+01
-5.628931e+01
-5.628876e+01
-5.628832e+01
-5.628800e+01
-5.628777e+01
-5.628766e+01
