# vtk DataFile Version 3.0
Monodomain MVF
ASCII
DATASET POLYDATA
POINTS 501 float
0.000000e+00 0.000000e+00 0.000000e+00
1.000000e-02 0.000000e+00 0.000000e+00
2.000000e-02 0.000000e+00 0.000000e+00
3.000000e-02 0.000000e+00 0.000000e+00
4.000000e-02 0.000000e+00 0.000000e+00
5.000000e-02 0.000000e+00 0.000000e+00
6.000000e-02 0.000000e+00 0.000000e+00
7.000000e-02 0.000000e+00 0.000000e+00
8.000000e-02 0.000000e+00 0.000000e+00
9.000000e-02 0.000000e+00 0.000000e+00
1.000000e-01 0.000000e+00 0.000000e+00
1.100000e-01 0.000000e+00 0.000000e+00
1.200000e-01 0.000000e+00 0.000000e+00
1.300000e-01 0.000000e+00 0.000000e+00
1.400000e-01 0.000000e+00 0.000000e+00
1.500000e-01 0.000000e+00 0.000000e+00
1.600000e-01 0.000000e+00 0.000000e+00
1.700000e-01 0.000000e+00 0.000000e+00
1.800000e-01 0.000000e+00 0.000000e+00
1.900000e-01 0.000000e+00 0.000000e+00
2.000000e-01 0.000000e+00 0.000000e+00
2.100000e-01 0.000000e+00 0.000000e+00
2.200000e-01 0.000000e+00 0.000000e+00
2.300000e-01 0.000000e+00 0.000000e+00
2.400000e-01 0.000000e+00 0.000000e+00
2.500000e-01 0.000000e+00 0.000000e+00
2.600000e-01 0.000000e+00 0.000000e+00
2.700000e-01 0.000000e+00 0.000000e+00
2.800000e-01 0.000000e+00 0.000000e+00
2.900000e-01 0.000000e+00 0.000000e+00
3.000000e-01 0.000000e+00 0.000000e+00
3.100000e-01 0.000000e+00 0.000000e+00
3.200000e-01 0.000000e+00 0.000000e+00
3.300000e-01 0.000000e+00 0.000000e+00
3.400000e-01 0.000000e+00 0.000000e+00
3.500000e-01 0.000000e+00 0.000000e+00
3.600000e-01 0.000000e+00 0.000000e+00
3.700000e-01 0.000000e+00 0.000000e+00
3.800000e-01 0.000000e+00 0.000000e+00
3.900000e-01 0.000000e+00 0.000000e+00
4.000000e-01 0.000000e+00 0.000000e+00
4.100000e-01 0.000000e+00 0.000000e+00
4.200000e-01 0.000000e+00 0.000000e+00
4.300000e-01 0.000000e+00 0.000000e+00
4.400000e-01 0.000000e+00 0.000000e+00
4.500000e-01 0.000000e+00 0.000000e+00
4.600000e-01 0.000000e+00 0.000000e+00
4.700000e-01 0.000000e+00 0.000000e+00
4.800000e-01 0.000000e+00 0.000000e+00
4.900000e-01 0.000000e+00 0.000000e+00
5.000000e-01 0.000000e+00 0.000000e+00
5.100000e-01 0.000000e+00 0.000000e+00
5.200000e-01 0.000000e+00 0.000000e+00
5.300000e-01 0.000000e+00 0.000000e+00
5.400000e-01 0.000000e+00 0.000000e+00
5.500000e-01 0.000000e+00 0.000000e+00
5.600000e-01 0.000000e+00 0.000000e+00
5.700000e-01 0.000000e+00 0.000000e+00
5.800000e-01 0.000000e+00 0.000000e+00
5.900000e-01 0.000000e+00 0.000000e+00
6.000000e-01 0.000000e+00 0.000000e+00
6.100000e-01 0.000000e+00 0.000000e+00
6.200000e-01 0.000000e+00 0.000000e+00
6.300000e-01 0.000000e+00 0.000000e+00
6.400000e-01 0.000000e+00 0.000000e+00
6.500000e-01 0.000000e+00 0.000000e+00
6.600000e-01 0.000000e+00 0.000000e+00
6.700000e-01 0.000000e+00 0.000000e+00
6.800000e-01 0.000000e+00 0.000000e+00
6.900000e-01 0.000000e+00 0.000000e+00
7.000000e-01 0.000000e+00 0.000000e+00
7.100000e-01 0.000000e+00 0.000000e+00
7.200000e-01 0.000000e+00 0.000000e+00
7.300000e-01 0.000000e+00 0.000000e+00
7.400000e-01 0.000000e+00 0.000000e+00
7.500000e-01 0.000000e+00 0.000000e+00
7.600000e-01 0.000000e+00 0.000000e+00
7.700000e-01 0.000000e+00 0.000000e+00
7.800000e-01 0.000000e+00 0.000000e+00
7.900000e-01 0.000000e+00 0.000000e+00
8.000000e-01 0.000000e+00 0.000000e+00
8.100000e-01 0.000000e+00 0.000000e+00
8.200000e-01 0.000000e+00 0.000000e+00
8.300000e-01 0.000000e+00 0.000000e+00
8.400000e-01 0.000000e+00 0.000000e+00
8.500000e-01 0.000000e+00 0.000000e+00
8.600000e-01 0.000000e+00 0.000000e+00
8.700000e-01 0.000000e+00 0.000000e+00
8.800000e-01 0.000000e+00 0.000000e+00
8.900000e-01 0.000000e+00 0.000000e+00
9.000000e-01 0.000000e+00 0.000000e+00
9.100000e-01 0.000000e+00 0.000000e+00
9.200000e-01 0.000000e+00 0.000000e+00
9.300000e-01 0.000000e+00 0.000000e+00
9.400000e-01 0.000000e+00 0.000000e+00
9.500000e-01 0.000000e+00 0.000000e+00
9.600000e-01 0.000000e+00 0.000000e+00
9.700000e-01 0.000000e+00 0.000000e+00
9.800000e-01 0.000000e+00 0.000000e+00
9.900000e-01 0.000000e+00 0.000000e+00
1.000000e+00 0.000000e+00 0.000000e+00
1.010000e+00 0.000000e+00 0.000000e+00
1.020000e+00 0.000000e+00 0.000000e+00
1.030000e+00 0.000000e+00 0.000000e+00
1.040000e+00 0.000000e+00 0.000000e+00
1.050000e+00 0.000000e+00 0.000000e+00
1.060000e+00 0.000000e+00 0.000000e+00
1.070000e+00 0.000000e+00 0.000000e+00
1.080000e+00 0.000000e+00 0.000000e+00
1.090000e+00 0.000000e+00 0.000000e+00
1.100000e+00 0.000000e+00 0.000000e+00
1.110000e+00 0.000000e+00 0.000000e+00
1.120000e+00 0.000000e+00 0.000000e+00
1.130000e+00 0.000000e+00 0.000000e+00
1.140000e+00 0.000000e+00 0.000000e+00
1.150000e+00 0.000000e+00 0.000000e+00
1.160000e+00 0.000000e+00 0.000000e+00
1.170000e+00 0.000000e+00 0.000000e+00
1.180000e+00 0.000000e+00 0.000000e+00
1.190000e+00 0.000000e+00 0.000000e+00
1.200000e+00 0.000000e+00 0.000000e+00
1.210000e+00 0.000000e+00 0.000000e+00
1.220000e+00 0.000000e+00 0.000000e+00
1.230000e+00 0.000000e+00 0.000000e+00
1.240000e+00 0.000000e+00 0.000000e+00
1.250000e+00 0.000000e+00 0.000000e+00
1.260000e+00 0.000000e+00 0.000000e+00
1.270000e+00 0.000000e+00 0.000000e+00
1.280000e+00 0.000000e+00 0.000000e+00
1.290000e+00 0.000000e+00 0.000000e+00
1.300000e+00 0.000000e+00 0.000000e+00
1.310000e+00 0.000000e+00 0.000000e+00
1.320000e+00 0.000000e+00 0.000000e+00
1.330000e+00 0.000000e+00 0.000000e+00
1.340000e+00 0.000000e+00 0.000000e+00
1.350000e+00 0.000000e+00 0.000000e+00
1.360000e+00 0.000000e+00 0.000000e+00
1.370000e+00 0.000000e+00 0.000000e+00
1.380000e+00 0.000000e+00 0.000000e+00
1.390000e+00 0.000000e+00 0.000000e+00
1.400000e+00 0.000000e+00 0.000000e+00
1.410000e+00 0.000000e+00 0.000000e+00
1.420000e+00 0.000000e+00 0.000000e+00
1.430000e+00 0.000000e+00 0.000000e+00
1.440000e+00 0.000000e+00 0.000000e+00
1.450000e+00 0.000000e+00 0.000000e+00
1.460000e+00 0.000000e+00 0.000000e+00
1.470000e+00 0.000000e+00 0.000000e+00
1.480000e+00 0.000000e+00 0.000000e+00
1.490000e+00 0.000000e+00 0.000000e+00
1.500000e+00 0.000000e+00 0.000000e+00
1.510000e+00 0.000000e+00 0.000000e+00
1.520000e+00 0.000000e+00 0.000000e+00
1.530000e+00 0.000000e+00 0.000000e+00
1.540000e+00 0.000000e+00 0.000000e+00
1.550000e+00 0.000000e+00 0.000000e+00
1.560000e+00 0.000000e+00 0.000000e+00
1.570000e+00 0.000000e+00 0.000000e+00
1.580000e+00 0.000000e+00 0.000000e+00
1.590000e+00 0.000000e+00 0.000000e+00
1.600000e+00 0.000000e+00 0.000000e+00
1.610000e+00 0.000000e+00 0.000000e+00
1.620000e+00 0.000000e+00 0.000000e+00
1.630000e+00 0.000000e+00 0.000000e+00
1.640000e+00 0.000000e+00 0.000000e+00
1.650000e+00 0.000000e+00 0.000000e+00
1.660000e+00 0.000000e+00 0.000000e+00
1.670000e+00 0.000000e+00 0.000000e+00
1.680000e+00 0.000000e+00 0.000000e+00
1.690000e+00 0.000000e+00 0.000000e+00
1.700000e+00 0.000000e+00 0.000000e+00
1.710000e+00 0.000000e+00 0.000000e+00
1.720000e+00 0.000000e+00 0.000000e+00
1.730000e+00 0.000000e+00 0.000000e+00
1.740000e+00 0.000000e+00 0.000000e+00
1.750000e+00 0.000000e+00 0.000000e+00
1.760000e+00 0.000000e+00 0.000000e+00
1.770000e+00 0.000000e+00 0.000000e+00
1.780000e+00 0.000000e+00 0.000000e+00
1.790000e+00 0.000000e+00 0.000000e+00
1.800000e+00 0.000000e+00 0.000000e+00
1.810000e+00 0.000000e+00 0.000000e+00
1.820000e+00 0.000000e+00 0.000000e+00
1.830000e+00 0.000000e+00 0.000000e+00
1.840000e+00 0.000000e+00 0.000000e+00
1.850000e+00 0.000000e+00 0.000000e+00
1.860000e+00 0.000000e+00 0.000000e+00
1.870000e+00 0.000000e+00 0.000000e+00
1.880000e+00 0.000000e+00 0.000000e+00
1.890000e+00 0.000000e+00 0.000000e+00
1.900000e+00 0.000000e+00 0.000000e+00
1.910000e+00 0.000000e+00 0.000000e+00
1.920000e+00 0.000000e+00 0.000000e+00
1.930000e+00 0.000000e+00 0.000000e+00
1.940000e+00 0.000000e+00 0.000000e+00
1.950000e+00 0.000000e+00 0.000000e+00
1.960000e+00 0.000000e+00 0.000000e+00
1.970000e+00 0.000000e+00 0.000000e+00
1.980000e+00 0.000000e+00 0.000000e+00
1.990000e+00 0.000000e+00 0.000000e+00
2.000000e+00 0.000000e+00 0.000000e+00
2.010000e+00 0.000000e+00 0.000000e+00
2.020000e+00 0.000000e+00 0.000000e+00
2.030000e+00 0.000000e+00 0.000000e+00
2.040000e+00 0.000000e+00 0.000000e+00
2.050000e+00 0.000000e+00 0.000000e+00
2.060000e+00 0.000000e+00 0.000000e+00
2.070000e+00 0.000000e+00 0.000000e+00
2.080000e+00 0.000000e+00 0.000000e+00
2.090000e+00 0.000000e+00 0.000000e+00
2.100000e+00 0.000000e+00 0.000000e+00
2.110000e+00 0.000000e+00 0.000000e+00
2.120000e+00 0.000000e+00 0.000000e+00
2.130000e+00 0.000000e+00 0.000000e+00
2.140000e+00 0.000000e+00 0.000000e+00
2.150000e+00 0.000000e+00 0.000000e+00
2.160000e+00 0.000000e+00 0.000000e+00
2.170000e+00 0.000000e+00 0.000000e+00
2.180000e+00 0.000000e+00 0.000000e+00
2.190000e+00 0.000000e+00 0.000000e+00
2.200000e+00 0.000000e+00 0.000000e+00
2.210000e+00 0.000000e+00 0.000000e+00
2.220000e+00 0.000000e+00 0.000000e+00
2.230000e+00 0.000000e+00 0.000000e+00
2.240000e+00 0.000000e+00 0.000000e+00
2.250000e+00 0.000000e+00 0.000000e+00
2.260000e+00 0.000000e+00 0.000000e+00
2.270000e+00 0.000000e+00 0.000000e+00
2.280000e+00 0.000000e+00 0.000000e+00
2.290000e+00 0.000000e+00 0.000000e+00
2.300000e+00 0.000000e+00 0.000000e+00
2.310000e+00 0.000000e+00 0.000000e+00
2.320000e+00 0.000000e+00 0.000000e+00
2.330000e+00 0.000000e+00 0.000000e+00
2.340000e+00 0.000000e+00 0.000000e+00
2.350000e+00 0.000000e+00 0.000000e+00
2.360000e+00 0.000000e+00 0.000000e+00
2.370000e+00 0.000000e+00 0.000000e+00
2.380000e+00 0.000000e+00 0.000000e+00
2.390000e+00 0.000000e+00 0.000000e+00
2.400000e+00 0.000000e+00 0.000000e+00
2.410000e+00 0.000000e+00 0.000000e+00
2.420000e+00 0.000000e+00 0.000000e+00
2.430000e+00 0.000000e+00 0.000000e+00
2.440000e+00 0.000000e+00 0.000000e+00
2.450000e+00 0.000000e+00 0.000000e+00
2.460000e+00 0.000000e+00 0.000000e+00
2.470000e+00 0.000000e+00 0.000000e+00
2.480000e+00 0.000000e+00 0.000000e+00
2.490000e+00 0.000000e+00 0.000000e+00
2.500000e+00 0.000000e+00 0.000000e+00
2.510000e+00 0.000000e+00 0.000000e+00
2.520000e+00 0.000000e+00 0.000000e+00
2.530000e+00 0.000000e+00 0.000000e+00
[...]
POINT_DATA 501
SCALARS vm float 1
LOOKUP_TABLE default
-8.407515e+01
-8.407512e+01
-8.407506e+01
-8.407498e+01
-8.407487e+01
-8.407465e+01
-8.407450e+01
-8.407433e+01
-8.407414e+01
-8.407394e+01
-8.407372e+01
-8.407348e+01
-8.407323e+01
-8.407297e+01
-8.407268e+01
-8.407239e+01
-8.407208e+01
-8.407176e+01
-8.407142e+01
-8.407107e+01
-8.407070e+01
-8.407032e+01
-8.406994e+01
-8.406953e+01
-8.406912e+01
-8.406869e+01
-8.406825e+01
-8.406780e+01
-8.406734e+01
-8.406686e+01
-8.406637e+01
-8.406588e+01
-8.406537e+01
-8.406485e+01
-8.406431e+01
-8.406377e+01
-8.406322e+01
-8.406265e+01
-8.406208e+01
-8.406149e+01
-8.406089e+01
-8.406029e+01
-8.405967e+01
-8.405904e+01
-8.405840e+01
-8.405775e+01
-8.405709e+01
-8.405642e+01
-8.405574e+01
-8.405505e+01
-8.405435e+01
-8.405364e+01
-8.405292e+01
-8.405218e+01
-8.405144e+01
-8.405069e+01
-8.404993e+01
-8.404916e+01
-8.404838e+01
-8.404758e+01
-8.404678e+01
-8.404597e+01
-8.404515e+01
-8.404432e+01
-8.404348e+01
-8.404263e+01
-8.404176e+01
-8.404089e+01
-8.404001e+01
-8.403912e+01
-8.403822e+01
-8.403731e+01
-8.403639e+01
-8.403546e+01
-8.403452e+01
-8.403357e+01
-8.403261e+01
-8.403165e+01
-8.403067e+01
-8.402968e+01
-8.402868e+01
-8.402767e+01
-8.402666e+01
-8.402563e+01
-8.402459e+01
-8.402355e+01
-8.402249e+01
-8.402142e+01
-8.402035e+01
-8.401926e+01
-8.401817e+01
-8.401707e+01
-8.401595e+01
-8.401483e+01
-8.401370e+01
-8.401255e+01
-8.401140e+01
-8.401024e+01
-8.400907e+01
-8.400789e+01
-8.400670e+01
-8.400550e+01
-8.400429e+01
-8.400307e+01
-8.400184e+01
-8.400060e+01
-8.399935e+01
-8.399810e+01
-8.399683e+01
-8.399556e+01
-8.399427e+01
-8.399298e+01
-8.399167e+01
-8.399036e+01
-8.398903e+01
-8.398770e+01
-8.398636e+01
-8.398501e+01
-8.398365e+01
-8.398228e+01
-8.398090e+01
-8.397951e+01
-8.397811e+01
-8.397671e+01
-8.397529e+01
-8.397387e+01
-8.397243e+01
-8.397099e+01
-8.396953e+01
-8.396807e+01
-8.396660e+01
-8.396512e+01
-8.396363e+01
-8.396213e+01
-8.396062e+01
-8.395910e+01
-8.395758e+01
-8.395604e+01
-8.395450e+01
-8.395295e+01
-8.395138e+01
-8.394981e+01
-8.394823e+01
-8.394664e+01
-8.394504e+01
-8.394344e+01
-8.394182e+01
-8.394019e+01
-8.393856e+01
-8.393692e+01
-8.393527e+01
-8.393361e+01
-8.393194e+01
-8.393026e+01
-8.392857e+01
-8.392688e+01
-8.392517e+01
-8.392346e+01
-8.392174e+01
-8.392001e+01
-8.391827e+01
-8.391653e+01
-8.391477e+01
-8.391301e+01
-8.391123e+01
-8.390945e+01
-8.390767e+01
-8.390587e+01
-8.390406e+01
-8.390225e+01
-8.390043e+01
-8.389860e+01
-8.389676e+01
-8.389491e+01
-8.389306e+01
-8.389119e+01
-8.388932e+01
-8.388744e+01
-8.388555e+01
-8.388366e+01
-8.388176e+01
-8.387984e+01
-8.387793e+01
-8.387600e+01
-8.387406e+01
-8.387212e+01
-8.387017e+01
-8.386821e+01
-8.386625e+01
-8.386427e+01
-8.386229e+01
-8.386031e+01
-8.385831e+01
-8.385631e+01
-8.385430e+01
-8.385228e+01
-8.385025e+01
-8.384822e+01
-8.384618e+01
-8.384413e+01
-8.384208e+01
-8.384002e+01
-8.383795e+01
-8.383587e+01
-8.383379e+01
-8.383170e+01
-8.382960e+01
-8.382750e+01
-8.382539e+01
-8.382328e+01
-8.382115e+01
-8.381902e+01
-8.381689e+01
-8.381474e+01
-8.381259e+01
-8.381044e+01
-8.380827e+01
-8.380611e+01
-8.380393e+01
-8.380175e+01
-8.379956e+01
-8.379737e+01
-8.379517e+01
-8.379296e+01
-8.379075e+01
-8.378853e+01
-8.378631e+01
-8.378408e+01
-8.378185e+01
-8.377961e+01
-8.377736e+01
-8.377511e+01
-8.377285e+01
-8.377059e+01
-8.376832e+01
-8.376605e+01
-8.376377e+01
-8.376149e+01
-8.375920e+01
-8.375691e+01
-8.375461e+01
-8.375230e+01
-8.375000e+01
-8.374768e+01
-8.374537e+01
-8.374304e+01
-8.374072e+01
-8.373839e+01
-8.373605e+01
-8.373371e+01
-8.373137e+01
-8.372902e+01
-8.372667e+01
-8.372431e+01
-8.372195e+01
-8.371959e+01
-8.371722e+01
-8.371485e+01
-8.371247e+01
-8.371010e+01
-8.370771e+01
-8.370533e+01
-8.370294e+01
-8.370055e+01
-8.369815e+01
-8.369575e+01
-8.369335e+01
-8.369095e+01
-8.368854e+01
-8.368613e+01
-8.368372e+01
-8.368131e+01
-8.367889e+01
-8.367647e+01
-8.367405e+01
-8.367162e+01
-8.366920e+01
-8.366677e+01
-8.366434e+01
-8.366191e+01
-8.365948e+01
-8.365704e+01
-8.365460e+01
-8.365217e+01
-8.364973e+01
-8.364729e+01
-8.364484e+01
-8.364240e+01
-8.363996e+01
-8.363751e+01
-8.363507e+01
-8.363262e+01
-8.363017e+01
-8.362773e+01
-8.362528e+01
-8.362283e+01
-8.362038e+01
-8.361793e+01
-8.361549e+01
-8.361304e+01
-8.361059e+01
-8.360814e+01
-8.360570e+01
-8.360325e+01
-8.360080e+01
-8.359836e+01
-8.359592e+01
-8.359347e+01
-8.359103e+01
-8.358859e+01
-8.358615e+01
-8.358371e+01
-8.358128e+01
-8.357884e+01
-8.357641e+01
-8.357398e+01
-8.357155e+01
-8.356912e+01
-8.356670e+01
-8.356428e+01
-8.356186e+01
-8.355944e+01
-8.355703e+01
-8.355462e+01
-8.355221e+01
-8.354980e+01
-8.354740e+01
-8.354500e+01
-8.354260e+01
-8.354021e+01
-8.353782e+01
-8.353544e+01
-8.353306e+01
-8.353068e+01
-8.352831e+01
-8.352594e+01
-8.352358e+01
-8.352122e+01
-8.351886e+01
-8.351651e+01
-8.351417e+01
-8.351182e+01
-8.350949e+01
-8.350716e+01
-8.350484e+01
-8.350252e+01
-8.350020e+01
-8.349790e+01
-8.349559e+01
-8.349330e+01
-8.349101e+01
-8.348872e+01
-8.348645e+01
-8.348418e+01
-8.348191e+01
-8.347966e+01
-8.347741e+01
-8.347516e+01
-8.347293e+01
-8.347070e+01
-8.346848e+01
-8.346626e+01
-8.346406e+01
-8.346186e+01
-8.345967e+01
-8.345749e+01
-8.345531e+01
-8.345315e+01
-8.345099e+01
-8.344884e+01
-8.344670e+01
-8.344457e+01
-8.344245e+01
-8.344033e+01
-8.343823e+01
-8.343614e+01
-8.343405e+01
-8.343198e+01
-8.342991e+01
-8.342785e+01
-8.342581e+01
-8.342377e+01
-8.342175e+01
-8.341973e+01
-8.341773e+01
-8.341574e+01
-8.341375e+01
-8.341178e+01
-8.340982e+01
-8.340787e+01
-8.340593e+01
-8.340401e+01
-8.340209e+01
-8.340019e+01
-8.339830e+01
-8.339642e+01
-8.339455e+01
-8.339269e+01
-8.339085e+01
-8.338902e+01
-8.338720e+01
-8.338540e+01
-8.338360e+01
-8.338182e+01
-8.338006e+01
-8.337831e+01
-8.337657e+01
-8.337484e+01
-8.337313e+01
-8.337143e+01
-8.336975e+01
-8.336807e+01
-8.336642e+01
-8.336478e+01
-8.336315e+01
-8.336153e+01
-8.335994e+01
-8.335835e+01
-8.335678e+01
-8.335523e+01
-8.335369e+01
-8.335217e+01
-8.335066e+01
-8.334916e+01
-8.334769e+01
-8.334622e+01
-8.334478e+01
-8.334335e+01
-8.334193e+01
-8.334054e+01
-8.333915e+01
-8.333779e+01
-8.333644e+01
-8.333511e+01
-8.333379e+01
-8.333249e+01
-8.333121e+01
-8.332995e+01
-8.332870e+01
-8.332747e+01
-8.332626e+01
-8.332506e+01
-8.332389e+01
-8.332273e+01
-8.332158e+01
-8.332046e+01
-8.331935e+01
-8.331827e+01
-8.331720e+01
-8.331614e+01
-8.331511e+01
-8.331410e+01
-8.331310e+01
-8.331212e+01
-8.331116e+01
-8.331022e+01
-8.330930e+01
-8.330840e+01
-8.330752e+01
-8.330666e+01
-8.330581e+01
-8.330499e+01
-8.330418e+01
-8.330339e+01
-8.330263e+01
-8.330188e+01
-8.330115e+01
-8.330045e+01
-8.329976e+01
-8.329909e+01
-8.329844e+01
-8.329782e+01
-8.329721e+01
-8.329662e+01
-8.329605e+01
-8.329550e+01
-8.329498e+01
-8.329447e+01
-8.329398e+01
-8.329352e+01
-8.329307e+01
-8.329264e+01
-8.329224e+01
-8.329185e+01
-8.329149e+01
-8.329114e+01
-8.329082e+01
-8.329051e+01
-8.329023e+01
-8.328997e+01
-8.328973e+01
-8.328950e+01
-8.328931e+01
-8.328913e+01
-8.328897e+01
-8.328883e+01
-8.328872e+01
-8.328863e+01
-8.328856e+01
-8.328851e+01
-8.328849e+01
