# vtk DataFile Version 3.0
Monodomain MVF
ASCII
DATASET POLYDATA
POINTS 244 float
0.000000e+00 0.000000e+00 0.000000e+00
1.640000e-02 0.000000e+00 0.000000e+00
3.280000e-02 0.000000e+00 0.000000e+00
4.920000e-02 0.000000e+00 0.000000e+00
6.560000e-02 0.000000e+00 0.000000e+00
8.200000e-02 0.000000e+00 0.000000e+00
9.840000e-02 0.000000e+00 0.000000e+00
1.148000e-01 0.000000e+00 0.000000e+00
1.312000e-01 0.000000e+00 0.000000e+00
1.476000e-01 0.000000e+00 0.000000e+00
1.640000e-01 0.000000e+00 0.000000e+00
1.804000e-01 0.000000e+00 0.000000e+00
1.968000e-01 0.000000e+00 0.000000e+00
2.132000e-01 0.000000e+00 0.000000e+00
2.296000e-01 0.000000e+00 0.000000e+00
2.460000e-01 0.000000e+00 0.000000e+00
2.624000e-01 0.000000e+00 0.000000e+00
2.788000e-01 0.000000e+00 0.000000e+00
2.952000e-01 0.000000e+00 0.000000e+00
3.116000e-01 0.000000e+00 0.000000e+00
3.280000e-01 0.000000e+00 0.000000e+00
3.444000e-01 0.000000e+00 0.000000e+00
3.608000e-01 0.000000e+00 0.000000e+00
3.772000e-01 0.000000e+00 0.000000e+00
3.936000e-01 0.000000e+00 0.000000e+00
4.100000e-01 0.000000e+00 0.000000e+00
4.264000e-01 0.000000e+00 0.000000e+00
4.428000e-01 0.000000e+00 0.000000e+00
4.592000e-01 0.000000e+00 0.000000e+00
4.756000e-01 0.000000e+00 0.000000e+00
4.920000e-01 0.000000e+00 0.000000e+00
5.084000e-01 0.000000e+00 0.000000e+00
5.248000e-01 0.000000e+00 0.000000e+00
5.412000e-01 0.000000e+00 0.000000e+00
5.576000e-01 0.000000e+00 0.000000e+00
5.740000e-01 0.000000e+00 0.000000e+00
5.904000e-01 0.000000e+00 0.000000e+00
6.068000e-01 0.000000e+00 0.000000e+00
6.232000e-01 0.000000e+00 0.000000e+00
6.396000e-01 0.000000e+00 0.000000e+00
6.560000e-01 0.000000e+00 0.000000e+00
6.724000e-01 0.000000e+00 0.000000e+00
6.888000e-01 0.000000e+00 0.000000e+00
7.052000e-01 0.000000e+00 0.000000e+00
7.216000e-01 0.000000e+00 0.000000e+00
7.380000e-01 0.000000e+00 0.000000e+00
7.544000e-01 0.000000e+00 0.000000e+00
7.708000e-01 0.000000e+00 0.000000e+00
7.872000e-01 0.000000e+00 0.000000e+00
8.036000e-01 0.000000e+00 0.000000e+00
8.200000e-01 0.000000e+00 0.000000e+00
8.364000e-01 0.000000e+00 0.000000e+00
8.528000e-01 0.000000e+00 0.000000e+00
8.692000e-01 0.000000e+00 0.000000e+00
8.856000e-01 0.000000e+00 0.000000e+00
9.020000e-01 0.000000e+00 0.000000e+00
9.184000e-01 0.000000e+00 0.000000e+00
9.348000e-01 0.000000e+00 0.000000e+00
9.512000e-01 0.000000e+00 0.000000e+00
9.676000e-01 0.000000e+00 0.000000e+00
9.840000e-01 0.000000e+00 0.000000e+00
1.000400e+00 0.000000e+00 0.000000e+00
1.016800e+00 0.000000e+00 0.000000e+00
1.033200e+00 0.000000e+00 0.000000e+00
1.049600e+00 0.000000e+00 0.000000e+00
1.066000e+00 0.000000e+00 0.000000e+00
1.082400e+00 0.000000e+00 0.000000e+00
1.098800e+00 0.000000e+00 0.000000e+00
1.115200e+00 0.000000e+00 0.000000e+00
1.131600e+00 0.000000e+00 0.000000e+00
1.148000e+00 0.000000e+00 0.000000e+00
1.164400e+00 0.000000e+00 0.000000e+00
1.180800e+00 0.000000e+00 0.000000e+00
1.197200e+00 0.000000e+00 0.000000e+00
1.213600e+00 0.000000e+00 0.000000e+00
1.230000e+00 0.000000e+00 0.000000e+00
1.246400e+00 0.000000e+00 0.000000e+00
1.262800e+00 0.000000e+00 0.000000e+00
1.279200e+00 0.000000e+00 0.000000e+00
1.295600e+00 0.000000e+00 0.000000e+00
1.312000e+00 0.000000e+00 0.000000e+00
1.328400e+00 0.000000e+00 0.000000e+00
1.344800e+00 0.000000e+00 0.000000e+00
1.361200e+00 0.000000e+00 0.000000e+00
1.377600e+00 0.000000e+00 0.000000e+00
1.394000e+00 0.000000e+00 0.000000e+00
1.410400e+00 0.000000e+00 0.000000e+00
1.426800e+00 0.000000e+00 0.000000e+00
1.443200e+00 0.000000e+00 0.000000e+00
1.459600e+00 0.000000e+00 0.000000e+00
1.476000e+00 0.000000e+00 0.000000e+00
1.492400e+00 0.000000e+00 0.000000e+00
1.508800e+00 0.000000e+00 0.000000e+00
1.525200e+00 0.000000e+00 0.000000e+00
1.541600e+00 0.000000e+00 0.000000e+00
1.558000e+00 0.000000e+00 0.000000e+00
1.574400e+00 0.000000e+00 0.000000e+00
1.590800e+00 0.000000e+00 0.000000e+00
1.607200e+00 0.000000e+00 0.000000e+00
1.623600e+00 0.000000e+00 0.000000e+00
1.640000e+00 0.000000e+00 0.000000e+00
1.656400e+00 0.000000e+00 0.000000e+00
1.672800e+00 0.000000e+00 0.000000e+00
1.689200e+00 0.000000e+00 0.000000e+00
1.705600e+00 0.000000e+00 0.000000e+00
1.722000e+00 0.000000e+00 0.000000e+00
1.738400e+00 0.000000e+00 0.000000e+00
1.754800e+00 0.000000e+00 0.000000e+00
1.771200e+00 0.000000e+00 0.000000e+00
1.787600e+00 0.000000e+00 0.000000e+00
1.804000e+00 0.000000e+00 0.000000e+00
1.820400e+00 0.000000e+00 0.000000e+00
1.836800e+00 0.000000e+00 0.000000e+00
1.853200e+00 0.000000e+00 0.000000e+00
1.869600e+00 0.000000e+00 0.000000e+00
1.886000e+00 0.000000e+00 0.000000e+00
1.902400e+00 0.000000e+00 0.000000e+00
1.918800e+00 0.000000e+00 0.000000e+00
1.935200e+00 0.000000e+00 0.000000e+00
1.951600e+00 0.000000e+00 0.000000e+00
1.968000e+00 0.000000e+00 0.000000e+00
1.984400e+00 0.000000e+00 0.000000e+00
2.016400e+00 0.000000e+00 0.000000e+00
2.032800e+00 0.000000e+00 0.000000e+00
2.049200e+00 0.000000e+00 0.000000e+00
2.065600e+00 0.000000e+00 0.000000e+00
2.082000e+00 0.000000e+00 0.000000e+00
2.098400e+00 0.000000e+00 0.000000e+00
2.114800e+00 0.000000e+00 0.000000e+00
2.131200e+00 0.000000e+00 0.000000e+00
2.147600e+00 0.000000e+00 0.000000e+00
2.164000e+00 0.000000e+00 0.000000e+00
2.180400e+00 0.000000e+00 0.000000e+00
2.196800e+00 0.000000e+00 0.000000e+00
2.213200e+00 0.000000e+00 0.000000e+00
2.229600e+00 0.000000e+00 0.000000e+00
2.246000e+00 0.000000e+00 0.000000e+00
2.262400e+00 0.000000e+00 0.000000e+00
2.278800e+00 0.000000e+00 0.000000e+00
2.295200e+00 0.000000e+00 0.000000e+00
2.311600e+00 0.000000e+00 0.000000e+00
2.328000e+00 0.000000e+00 0.000000e+00
2.344400e+00 0.000000e+00 0.000000e+00
2.360800e+00 0.000000e+00 0.000000e+00
2.377200e+00 0.000000e+00 0.000000e+00
2.393600e+00 0.000000e+00 0.000000e+00
2.410000e+00 0.000000e+00 0.000000e+00
2.426400e+00 0.000000e+00 0.000000e+00
2.442800e+00 0.000000e+00 0.000000e+00
2.459200e+00 0.000000e+00 0.000000e+00
2.475600e+00 0.000000e+00 0.000000e+00
2.492000e+00 0.000000e+00 0.000000e+00
2.508400e+00 0.000000e+00 0.000000e+00
2.524800e+00 0.000000e+00 0.000000e+00
2.541200e+00 0.000000e+00 0.000000e+00
2.557600e+00 0.000000e+00 0.000000e+00
2.574000e+00 0.000000e+00 0.000000e+00
2.590400e+00 0.000000e+00 0.000000e+00
2.606800e+00 0.000000e+00 0.000000e+00
2.623200e+00 0.000000e+00 0.000000e+00
2.639600e+00 0.000000e+00 0.000000e+00
2.656000e+00 0.000000e+00 0.000000e+00
2.672400e+00 0.000000e+00 0.000000e+00
2.688800e+00 0.000000e+00 0.000000e+00
2.705200e+00 0.000000e+00 0.000000e+00
2.721600e+00 0.000000e+00 0.000000e+00
2.738000e+00 0.000000e+00 0.000000e+00
2.754400e+00 0.000000e+00 0.000000e+00
2.770800e+00 0.000000e+00 0.000000e+00
2.787200e+00 0.000000e+00 0.000000e+00
2.803600e+00 0.000000e+00 0.000000e+00
2.820000e+00 0.000000e+00 0.000000e+00
2.836400e+00 0.000000e+00 0.000000e+00
2.852800e+00 0.000000e+00 0.000000e+00
2.869200e+00 0.000000e+00 0.000000e+00
2.885600e+00 0.000000e+00 0.000000e+00
2.902000e+00 0.000000e+00 0.000000e+00
2.918400e+00 0.000000e+00 0.000000e+00
2.934800e+00 0.000000e+00 0.000000e+00
2.951200e+00 0.000000e+00 0.000000e+00
2.967600e+00 0.000000e+00 0.000000e+00
2.984000e+00 0.000000e+00 0.000000e+00
3.000400e+00 0.000000e+00 0.000000e+00
3.016800e+00 0.000000e+00 0.000000e+00
3.033200e+00 0.000000e+00 0.000000e+00
3.049600e+00 0.000000e+00 0.000000e+00
3.066000e+00 0.000000e+00 0.000000e+00
3.082400e+00 0.000000e+00 0.000000e+00
3.098800e+00 0.000000e+00 0.000000e+00
3.115200e+00 0.000000e+00 0.000000e+00
3.131600e+00 0.000000e+00 0.000000e+00
3.148000e+00 0.000000e+00 0.000000e+00
3.164400e+00 0.000000e+00 0.000000e+00
3.180800e+00 0.000000e+00 0.000000e+00
3.197200e+00 0.000000e+00 0.000000e+00
3.213600e+00 0.000000e+00 0.000000e+00
3.230000e+00 0.000000e+00 0.000000e+00
3.246400e+00 0.000000e+00 0.000000e+00
3.262800e+00 0.000000e+00 0.000000e+00
3.279200e+00 0.000000e+00 0.000000e+00
3.295600e+00 0.000000e+00 0.000000e+00
3.312000e+00 0.000000e+00 0.000000e+00
3.328400e+00 0.000000e+00 0.000000e+00
3.344800e+00 0.000000e+00 0.000000e+00
3.361200e+00 0.000000e+00 0.000000e+00
3.377600e+00 0.000000e+00 0.000000e+00
3.394000e+00 0.000000e+00 0.000000e+00
3.410400e+00 0.000000e+00 0.000000e+00
3.426800e+00 0.000000e+00 0.000000e+00
3.443200e+00 0.000000e+00 0.000000e+00
3.459600e+00 0.000000e+00 0.000000e+00
3.476000e+00 0.000000e+00 0.000000e+00
3.492400e+00 0.000000e+00 0.000000e+00
3.508800e+00 0.000000e+00 0.000000e+00
3.525200e+00 0.000000e+00 0.000000e+00
3.541600e+00 0.000000e+00 0.000000e+00
3.558000e+00 0.000000e+00 0.000000e+00
3.574400e+00 0.000000e+00 0.000000e+00
3.590800e+00 0.000000e+00 0.000000e+00
3.607200e+00 0.000000e+00 0.000000e+00
3.623600e+00 0.000000e+00 0.000000e+00
3.640000e+00 0.000000e+00 0.000000e+00
3.656400e+00 0.000000e+00 0.000000e+00
3.672800e+00 0.000000e+00 0.000000e+00
3.689200e+00 0.000000e+00 0.000000e+00
3.705600e+00 0.000000e+00 0.000000e+00
3.722000e+00 0.000000e+00 0.000000e+00
3.738400e+00 0.000000e+00 0.000000e+00
3.754800e+00 0.000000e+00 0.000000e+00
3.771200e+00 0.000000e+00 0.000000e+00
3.787600e+00 0.000000e+00 0.000000e+00
3.804000e+00 0.000000e+00 0.000000e+00
3.820400e+00 0.000000e+00 0.000000e+00
3.836800e+00 0.000000e+00 0.000000e+00
3.853200e+00 0.000000e+00 0.000000e+00
3.869600e+00 0.000000e+00 0.000000e+00
3.886000e+00 0.000000e+00 0.000000e+00
3.902400e+00 0.000000e+00 0.000000e+00
3.918800e+00 0.000000e+00 0.000000e+00
3.935200e+00 0.000000e+00 0.000000e+00
3.951600e+00 0.000000e+00 0.000000e+00
3.968000e+00 0.000000e+00 0.000000e+00
3.984400e+00 0.000000e+00 0.000000e+00
5.984400e+00 0.000000e+00 0.000000e+00
LINES 486 1458
2 0 1
2 1 0
2 1 2
2 2 1
2 2 3
2 3 2
2 3 4
2 4 3
2 4 5
2 5 4
2 5 6
2 6 5
2 6 7
2 7 6
2 7 8
2 8 7
2 8 9
2 9 8
2 9 10
2 10 9
2 10 11
2 11 10
2 11 12
2 12 11
2 12 13
2 13 12
2 13 14
2 14 13
2 14 15
2 15 14
2 15 16
2 16 15
2 16 17
2 17 16
2 17 18
2 18 17
2 18 19
2 19 18
2 19 20
2 20 19
2 20 21
2 21 20
2 21 22
2 22 21
2 22 23
2 23 22
2 23 24
2 24 23
2 24 25
2 25 24
2 25 26
2 26 25
2 26 27
2 27 26
2 27 28
2 28 27
2 28 29
2 29 28
2 29 30
2 30 29
2 30 31
2 31 30
2 31 32
2 32 31
2 32 33
2 33 32
2 33 34
2 34 33
2 34 35
2 35 34
2 35 36
2 36 35
2 36 37
2 37 36
2 37 38
2 38 37
2 38 39
2 39 38
2 39 40
2 40 39
2 40 41
2 41 40
2 41 42
2 42 41
2 42 43
2 43 42
2 43 44
2 44 43
2 44 45
2 45 44
2 45 46
2 46 45
2 46 47
2 47 46
2 47 48
2 48 47
2 48 49
2 49 48
2 49 50
2 50 49
2 50 51
2 51 50
2 51 52
2 52 51
2 52 53
2 53 52
2 53 54
2 54 53
2 54 55
2 55 54
2 55 56
2 56 55
2 56 57
2 57 56
2 57 58
2 58 57
2 58 59
2 59 58
2 59 60
2 60 59
2 60 61
2 61 60
2 61 62
2 62 61
2 62 63
2 63 62
2 63 64
2 64 63
2 64 65
2 65 64
2 65 66
2 66 65
2 66 67
2 67 66
2 67 68
2 68 67
2 68 69
2 69 68
2 69 70
2 70 69
2 70 71
2 71 70
2 71 72
2 72 71
2 72 73
2 73 72
2 73 74
2 74 73
2 74 75
2 75 74
2 75 76
2 76 75
2 76 77
2 77 76
2 77 78
2 78 77
2 78 79
2 79 78
2 79 80
2 80 79
2 80 81
2 81 80
2 81 82
2 82 81
2 82 83
2 83 82
2 83 84
2 84 83
2 84 85
2 85 84
2 85 86
2 86 85
2 86 87
2 87 86
2 87 88
2 88 87
2 88 89
2 89 88
2 89 90
2 90 89
2 90 91
2 91 90
2 91 92
2 92 91
2 92 93
2 93 92
2 93 94
2 94 93
2 94 95
2 95 94
2 95 96
2 96 95
2 96 97
2 97 96
2 97 98
2 98 97
2 98 99
2 99 98
2 99 100
2 100 99
2 100 101
2 101 100
2 101 102
2 102 101
2 102 103
2 103 102
2 103 104
2 104 103
2 104 105
2 105 104
2 105 106
2 106 105
2 106 107
2 107 106
2 107 108
2 108 107
2 108 109
2 109 108
2 109 110
2 110 109
2 110 111
2 111 110
2 111 112
2 112 111
2 112 113
2 113 112
2 113 114
2 114 113
2 114 115
2 115 114
2 115 116
2 116 115
2 116 117
2 117 116
2 117 118
2 118 117
2 118 119
2 119 118
2 119 120
2 120 119
2 120 121
2 121 120
2 121 122
2 122 121
2 122 123
2 123 122
2 123 124
2 124 123
2 124 125
2 125 124
2 125 126
2 126 125
2 126 127
2 127 126
2 127 128
2 128 127
2 128 129
2 129 128
2 129 130
2 130 129
2 130 131
2 131 130
2 131 132
2 132 131
2 132 133
2 133 132
2 133 134
2 134 133
2 134 135
2 135 134
2 135 136
2 136 135
2 136 137
2 137 136
2 137 138
2 138 137
2 138 139
2 139 138
2 139 140
2 140 139
2 140 141
2 141 140
2 141 142
2 142 141
2 142 143
2 143 142
2 143 144
2 144 143
2 144 145
2 145 144
2 145 146
2 146 145
2 146 147
2 147 146
2 147 148
2 148 147
2 148 149
2 149 148
2 149 150
2 150 149
2 150 151
2 151 150
2 151 152
2 152 151
2 152 153
2 153 152
2 153 154
2 154 153
2 154 155
2 155 154
2 155 156
2 156 155
2 156 157
2 157 156
2 157 158
2 158 157
2 158 159
2 159 158
2 159 160
2 160 159
2 160 161
2 161 160
2 161 162
2 162 161
2 162 163
2 163 162
2 163 164
2 164 163
2 164 165
2 165 164
2 165 166
2 166 165
2 166 167
2 167 166
2 167 168
2 168 167
2 168 169
2 169 168
2 169 170
2 170 169
2 170 171
2 171 170
2 171 172
2 172 171
2 172 173
2 173 172
2 173 174
2 174 173
2 174 175
2 175 174
2 175 176
2 176 175
2 176 177
2 177 176
2 177 178
2 178 177
2 178 179
2 179 178
2 179 180
2 180 179
2 180 181
2 181 180
2 181 182
2 182 181
2 182 183
2 183 182
2 183 184
2 184 183
2 184 185
2 185 184
2 185 186
2 186 185
2 186 187
2 187 186
2 187 188
2 188 187
2 188 189
2 189 188
2 189 190
2 190 189
2 190 191
2 191 190
2 191 192
2 192 191
2 192 193
2 193 192
2 193 194
2 194 193
2 194 195
2 195 194
2 195 196
2 196 195
2 196 197
2 197 196
2 197 198
2 198 197
2 198 199
2 199 198
2 199 200
2 200 199
2 200 201
2 201 200
2 201 202
2 202 201
2 202 203
2 203 202
2 203 204
2 204 203
2 204 205
2 205 204
2 205 206
2 206 205
2 206 207
2 207 206
2 207 208
2 208 207
2 208 209
2 209 208
2 209 210
2 210 209
2 210 211
2 211 210
2 211 212
2 212 211
2 212 213
2 213 212
2 213 214
2 214 213
2 214 215
2 215 214
2 215 216
2 216 215
2 216 217
2 217 216
2 217 218
2 218 217
2 218 219
2 219 218
2 219 220
2 220 219
2 220 221
2 221 220
2 221 222
2 222 221
2 222 223
2 223 222
2 223 224
2 224 223
2 224 225
2 225 224
2 225 226
2 226 225
2 226 227
2 227 226
2 227 228
2 228 227
2 228 229
2 229 228
2 229 230
2 230 229
2 230 231
2 231 230
2 231 232
2 232 231
2 232 233
2 233 232
2 233 234
2 234 233
2 234 235
2 235 234
2 235 236
2 236 235
2 236 237
2 237 236
2 237 238
2 238 237
2 238 239
2 239 238
2 239 240
2 240 239
2 240 241
2 241 240
2 241 242
2 242 241
2 242 243
2 243 242
POINT_DATA 244
SCALARS vm float 1
LOOKUP_TABLE default
-8.193230e+01
-8.193230e+01
-8.193231e+01
-8.193231e+01
-8.193231e+01
-8.193231e+01
-8.193232e+01
-8.193233e+01
-8.193234e+01
-8.193236e+01
-8.193239e+01
-8.193242e+01
-8.193246e+01
-8.193250e+01
-8.193256e+01
-8.193262e+01
-8.193269e+01
-8.193277e+01
-8.193286e+01
-8.193296e+01
-8.193307e+01
-8.193319e+01
-8.193332e+01
-8.193347e+01
-8.193362e+01
-8.193379e+01
-8.193398e+01
-8.193417e+01
-8.193438e+01
-8.193461e+01
-8.193484e+01
-8.193510e+01
-8.193536e+01
-8.193565e+01
-8.193594e+01
-8.193626e+01
-8.193659e+01
-8.193693e+01
-8.193730e+01
-8.193768e+01
-8.193807e+01
-8.193849e+01
-8.193892e+01
-8.193937e+01
-8.193984e+01
-8.194032e+01
-8.194083e+01
-8.194135e+01
-8.194190e+01
-8.194246e+01
-8.194305e+01
-8.194365e+01
-8.194427e+01
-8.194492e+01
-8.194559e+01
-8.194627e+01
-8.194698e+01
-8.194771e+01
-8.194847e+01
-8.194925e+01
-8.195004e+01
-8.195087e+01
-8.195171e+01
-8.195258e+01
-8.195348e+01
-8.195440e+01
-8.195534e+01
-8.195631e+01
-8.195731e+01
-8.195833e+01
-8.195938e+01
-8.196046e+01
-8.196156e+01
-8.196269e+01
-8.196385e+01
-8.196504e+01
-8.196626e+01
-8.196751e+01
-8.196879e+01
-8.197010e+01
-8.197144e+01
-8.197282e+01
-8.197422e+01
-8.197566e+01
-8.197713e+01
-8.197864e+01
-8.198018e+01
-8.198176e+01
-8.198338e+01
-8.198503e+01
-8.198672e+01
-8.198845e+01
-8.199022e+01
-8.199202e+01
-8.199387e+01
-8.199576e+01
-8.199769e+01
-8.199967e+01
-8.200169e+01
-8.200375e+01
-8.200586e+01
-8.200802e+01
-8.201023e+01
-8.201248e+01
-8.201479e+01
-8.201714e+01
-8.201955e+01
-8.202201e+01
-8.202453e+01
-8.202710e+01
-8.202973e+01
-8.203241e+01
-8.203516e+01
-8.203796e+01
-8.204083e+01
-8.204376e+01
-8.204676e+01
-8.204982e+01
-8.205295e+01
-8.205615e+01
-8.205942e+01
-8.206277e+01
-8.206619e+01
-8.206968e+01
-8.207325e+01
-8.207690e+01
-8.208064e+01
-8.208445e+01
-8.208835e+01
-8.209234e+01
-8.209642e+01
-8.210059e+01
-8.210485e+01
-8.210921e+01
-8.211367e+01
-8.211823e+01
-8.212289e+01
-8.212765e+01
-8.213253e+01
-8.213751e+01
-8.214261e+01
-8.214783e+01
-8.215316e+01
-8.215861e+01
-8.216419e+01
-8.216990e+01
-8.217574e+01
-8.218171e+01
-8.218782e+01
-8.219407e+01
-8.220047e+01
-8.220701e+01
-8.221371e+01
-8.222056e+01
-8.222756e+01
-8.223474e+01
-8.224207e+01
-8.224958e+01
-8.225727e+01
-8.226513e+01
-8.227318e+01
-8.228142e+01
-8.228985e+01
-8.229849e+01
-8.230732e+01
-8.231636e+01
-8.232562e+01
-8.233509e+01
-8.234479e+01
-8.235472e+01
-8.236489e+01
-8.237530e+01
-8.238596e+01
-8.239687e+01
-8.240804e+01
-8.241948e+01
-8.243120e+01
-8.244319e+01
-8.245548e+01
-8.246806e+01
-8.248094e+01
-8.249413e+01
-8.250765e+01
-8.252149e+01
-8.253566e+01
-8.255018e+01
-8.256505e+01
-8.258029e+01
-8.259589e+01
-8.261188e+01
-8.262825e+01
-8.264503e+01
-8.266222e+01
-8.267983e+01
-8.269787e+01
-8.271635e+01
-8.273529e+01
-8.275470e+01
-8.277458e+01
-8.279496e+01
-8.281583e+01
-8.283723e+01
-8.285916e+01
-8.288163e+01
-8.290466e+01
-8.292826e+01
-8.295245e+01
-8.297725e+01
-8.300266e+01
-8.302871e+01
-8.305541e+01
-8.308279e+01
-8.311085e+01
-8.313961e+01
-8.316910e+01
-8.319933e+01
-8.323033e+01
-8.326211e+01
-8.329470e+01
-8.332811e+01
-8.336237e+01
-8.339750e+01
-8.343353e+01
-8.347048e+01
-8.350837e+01
-8.354723e+01
-8.358708e+01
-8.362796e+01
-8.366990e+01
-8.371291e+01
-8.375704e+01
-8.380230e+01
-8.384874e+01
-8.389639e+01
-8.394528e+01
-8.399544e+01
-8.404692e+01
-8.409975e+01
-8.415398e+01
-8.420963e+01
-8.426677e+01
-8.432542e+01
-8.438564e+01
-8.438868e+01
